# vtk DataFile Version 2.0
sampleSurface
ASCII
DATASET POLYDATA
POINTS 15978 float
-4.26165e-19 0.000133477 0 -4.18079e-19 -0.000798814 0 -4.33681e-19 0.001 0 -4.09379e-19 -0.00180187
0 -0.00181681 0.000361473 0 0.00181681 0.000361473 0 -0.00181396 -0.000575145 0
0.00181396 -0.000575145 0 -0.00181945 0.00123202 0 0.00181945 0.00123202 0 -0.00181089
-0.00158285 0 0.00181089 -0.00158285 0 -4.00018e-19 -0.00288105 0 -0.00180759 -0.00266704
0 0.00180759 -0.00266704 0 -0.00351565 8.15481e-05 0 0.00351565 8.15481e-05 0
-0.00351186 -0.000939823 0 0.00351186 -0.000939823 0 -0.00351918 0.00103087 0 0.00351918
0.00103087 0 -0.00352245 0.00191322 0 0.00352245 0.00191322 0 -3.89947e-19 -0.00404214
0 -0.00350777 -0.00203871 0 0.00350777 -0.00203871 0 -0.00180405 -0.00383352 0
0.00180405 -0.00383352 0 -0.00350338 -0.00322101 0 0.00350338 -0.00322101 0 -0.005
8.60602e-05 0 0.005 8.60602e-05 0 -0.005 -0.00103629 0 0.005 -0.00103629
0 -0.005 0.00112923 0 0.005 0.00112923 0 -3.79112e-19 -0.00529135 0
-0.00180023 -0.00508853 0 0.00180023 -0.00508853 0 -0.005 0.00209882 0 0.005
0.00209882 0 -0.005 -0.00224382 0 0.005 -0.00224382 0 -0.00349866 -0.00449304
0 0.00349866 -0.00449304 0 -0.005 0.003 0 0.005 0.003 0
-0.005 -0.003543 0 0.005 -0.003543 0 -0.00637208 2.82617e-05 0 0.00639053
4.25732e-05 0 -0.00637208 0.00114892 0 -0.00637208 -0.00117745 0 0.00639053 -0.00116311
0 0.00639053 0.00116321 0 -3.67455e-19 -0.00663538 0 -0.00179612 -0.00643879 0
0.00179612 -0.00643879 0 -0.00637208 0.00219052 0 0.00639053 0.00220479 0 -0.00349357
-0.00586162 0 0.00349357 -0.00586162 0 -0.00637208 -0.00247467 0 0.00639053 -0.00246031
0 -0.005 -0.00494079 0 0.005 -0.00494079 0 -0.00637208 0.00315864 0
0.00639053 0.00317289 0 -0.00637208 -0.00387036 0 0.00639053 -0.00385597 0 -0.00637208
0.00405846 0 0.00639053 0.00407269 0 -0.00778421 -7.99569e-05 0 0.00781802 -5.3679e-05
0 -0.00778421 0.00112388 0 0.00781802 0.00115011 0 -0.00778421 -0.00137517 0
0.00781802 -0.00134884 0 -3.54912e-19 -0.00808142 0 -0.0017917 -0.00789154 0 0.0017917
-0.00789154 0 -0.00778421 0.0022428 0 -0.0034881 -0.00733407 0 0.0034881 -0.00733407
0 0.00781802 0.00226899 0 -0.005 -0.00644467 0 0.005 -0.00644467 0
-0.00778421 -0.00276868 0 0.00781802 -0.0027423 0 -0.00637208 -0.00537197 0 0.00639053
-0.00535755 0 -0.00778421 0.00328278 0 0.00781802 0.00330893 0 -0.00778421 0.00424939
0 -0.00778421 -0.00426796 0 0.00781802 -0.00424152 0 0.00781802 0.00427551 0
-0.00923755 -0.000243565 0 0.00928347 -0.000207818 0 -0.00923755 0.00104957 0 -0.00778421
0.00514782 0 0.00928347 0.00108525 0 0.00781802 0.0051739 0 -0.00923755 -0.00163485
0 0.00928347 -0.00159903 0 -0.00637208 -0.00698755 0 0.00639053 -0.0069731 0
-0.005 -0.0080627 0 0.005 -0.0080627 0 -0.00923755 0.00225148 0 0.00928347
0.0022871 0 -0.00348222 -0.00891827 0 0.00348222 -0.00891827 0 -0.00178695 -0.00945455
0 0.00178695 -0.00945455 0 -3.41418e-19 -0.00963721 0 -0.00923755 -0.00313172 0
-0.00778421 -0.00588103 0 0.00781802 -0.00585453 0 0.00928347 -0.00309583 0 -0.00923755
0.0033686 0 0.00928347 0.00340416 0 -0.00923755 0.00440692 0 0.00928347 0.00444243
0 -0.00923755 -0.00474221 0 0.00928347 -0.00470623 0 -0.00923755 0.00537198 0
-0.0107333 -0.000467921 0 0.00928347 0.00540745 0 -0.0107333 0.000921062 0 0.0107879
-0.000425364 0 0.00639053 -0.00871127 0 -0.00637208 -0.00872575 0 0.0107879 0.000963535
0 -0.00778421 -0.00761653 0 0.00781802 -0.00758997 0 -0.0107333 -0.00196233 0
0.0107879 -0.00191968 0 -0.0107333 0.00221206 0 -0.005 -0.00980352 0 0.005
-0.00980352 0 0.0107879 0.00225445 0 -0.00923755 0.00626897 0 -0.00347589 -0.0106227
0 0.00347589 -0.0106227 0 0.00928347 0.00630439 0 -0.0107333 0.00341198 0
-0.00178183 -0.0111362 0 0.00178183 -0.0111362 0 -0.00923755 -0.00647493 0 0.00928347
-0.00643887 0 -3.26899e-19 -0.0113111 0 -0.0107333 -0.00357015 0 0.0107879 0.00345431
0 0.0107879 -0.00352741 0 -0.0107333 0.00452726 0 0.0107879 0.00456952 0
-0.0107333 -0.00530001 0 0.0107879 -0.00525717 0 -0.0107333 0.00556386 0 0.0107879
0.00560606 0 -0.000743369 0.0122055 0 0.000743369 0.0122055 0 -0.00778421 -0.00948375
0 0.00781802 -0.00945713 0 -0.0122727 0.000733061 0 -0.0122727 -0.000758799 0
0.0123323 -0.000712262 0 0.0123323 0.0007795 0 0.00639053 -0.0105814 0 -0.00637208
-0.0105959 0 -0.00923755 -0.00833916 0 -0.0122727 0.00211968 0 0.00928347 -0.00830301
0 -0.0122727 -0.00236389 0 0.0123323 0.00216603 0 0.0123323 -0.00231725 0
-0.0107333 0.00652734 0 0.0107879 0.00656947 0 -0.005 -0.0116765 0 0.005
-0.0116765 0 -0.0122727 0.00340848 0 0.0123323 0.00345474 0 -0.000741126 0.0128136
0 0.000741126 0.0128136 0 -0.0107333 -0.00716117 0 0.0107879 -0.00711821 0
-0.00346908 -0.0124565 0 0.00346908 -0.0124565 0 -0.0122727 -0.00409081 0 0.0123323
-0.00404405 0 -0.0107333 0.00742284 0 -0.00177633 -0.0129455 0 0.00177633 -0.0129455
0 -0.0122727 0.00460636 0 -3.11279e-19 -0.013112 0 0.0107879 0.00746492 0
-0.002 0.013 0 0.002 0.013 0 0.0123323 0.00465255 0 -0.0007387
0.0134712 0 0.0007387 0.0134712 0 -0.0122727 0.00571974 0 0.0123323 0.00576585
0 -0.0122727 -0.00594879 0 0.0123323 -0.00590191 0 -0.002 0.0135849 0
0.002 0.0135849 0 -0.0138571 0.000479853 0 -0.00923755 -0.0103449 0 0.00928347
-0.0103086 0 0.00781802 -0.011466 0 -0.00778421 -0.0114927 0 -0.0138571 -0.00112242
0 0.0139177 0.000527252 0 0.0139177 -0.00107491 0 -0.0138571 0.0019691 0
-0.0122727 0.00675458 0 0.0139177 0.00201639 0 0.0123323 0.00680062 0 -0.0107333
-0.00916358 0 0.00639053 -0.0125934 0 0.0107879 -0.0091205 0 -0.00637208 -0.012608
0 -0.0138571 -0.0028463 0 0.0139177 -0.00279868 0 -0.000736077 0.0141824 0
0.000736077 0.0141824 0 -0.00319452 0.0138829 0 0.00320133 0.0138879 0 -0.0138571
0.00335328 0 0.0139177 0.00340049 0 -0.002 0.0142174 0 0.002 0.0142174
0 -0.0122727 0.00771641 0 0.0123323 0.00776239 0 -0.005 -0.0136916 0
0.005 -0.0136916 0 -0.0138571 0.00463982 0 -0.0122727 -0.0079478 0 -0.0138571
-0.00470103 0 0.0123323 -0.00790078 0 0.0139177 -0.00465328 0 0.0139177 0.00468694
0 -0.00319452 0.0144678 0 0.00320133 0.0144728 0 -0.00346175 -0.0144295 0
0.00346175 -0.0144295 0 -0.00073324 0.0149515 0 0.00073324 0.0149515 0 -0.0122727
0.00861039 0 -0.00177041 -0.0148921 0 0.00177041 -0.0148921 0 -0.002 0.0149014
0 0.002 0.0149014 0 -0.0138571 0.0058356 0 -2.94473e-19 -0.0150496 0
0.0123323 0.00865631 0 0.0139177 0.00588264 0 -0.0138571 -0.00669653 0 0.0139177
-0.00664864 0 -0.00319452 0.0151003 0 0.00320133 0.0151053 0 -0.0154877 0.000155282
0 -0.0138571 0.00694702 0 -0.00451419 0.0148583 0 0.0045263 0.0148673 0
0.00928347 -0.0124665 0 -0.00923755 -0.0125028 0 0.0155453 0.000200444 0 -0.0154877
-0.00156548 0 0.0139177 0.00699399 0 -0.0154877 0.00175466 0 -0.0107333 -0.011318
0 0.0107879 -0.0112748 0 0.0155453 -0.00152021 0 0.0155453 0.00179972 0
0.00781802 -0.0136273 0 -0.00778421 -0.0136541 0 -0.002 0.0156411 0 0.002
0.0156411 0 -0.000730172 0.0157833 0 0.000730172 0.0157833 0 -0.0154877 0.0032412
0 -0.0154877 -0.00341685 0 0.0155453 0.00328617 0 -0.0122727 -0.0100985 0
0.0155453 -0.00337146 0 0.0123323 -0.0100514 0 -0.0138571 0.00798004 0 0.0139177
0.00802694 0 0.00639053 -0.0147581 0 -0.00637208 -0.0147727 0 -0.00451419 0.0154432
0 0.0045263 0.0154521 0 -0.00319452 0.0157843 0 0.00320133 0.0157893 0
-0.0154877 0.00462288 0 0.0155453 0.00466776 0 -0.0154877 -0.00540874 0 -0.0138571
-0.00884348 0 0.0155453 -0.00536322 0 0.0139177 -0.00879545 0 -0.0138571 0.00894019
0 -0.002 0.0164411 0 0.002 0.0164411 0 0.0139177 0.00898702 0
-0.0154877 0.00590709 0 -0.005 -0.0158596 0 0.005 -0.0158596 0 0.0155453
0.00595189 0 -0.00451419 0.0160757 0 -0.000726854 0.0166828 0 0.000726854 0.0166828
0 0.0045263 0.0160846 0 -0.00319452 0.016524 0 0.00320133 0.016529 0
-0.00345386 -0.0165523 0 0.00345386 -0.0165523 0 -0.0138571 0.0098326 0 -0.00597213
0.0159359 0 0.00598764 0.0159474 0 -0.0154877 0.00710071 0 0.0139177 0.00987937
0 -0.00176404 -0.0169864 0 0.00176404 -0.0169864 0 0.0155453 0.00714543 0
-2.76391e-19 -0.0171343 0 -0.0171658 -0.000247278 0 0.0172162 -0.000207752 0 -0.0171658
0.00147028 0 -0.0154877 -0.0075518 0 0.0155453 -0.00750615 0 0.0172162 0.00150971
0 -0.0171658 -0.00209519 0 0.0172162 -0.00205556 0 0.0107879 -0.0135925 0
-0.0107333 -0.0136359 0 -0.00451419 0.0167597 0 0.0045263 0.0167686 0 -0.002
0.0173062 0 0.002 0.0173062 0 -0.0171658 0.00306667 0 -0.0122727 -0.0124125
0 0.00928347 -0.0147881 0 0.0123323 -0.0123652 0 -0.00923755 -0.0148246 0
0.0172162 0.00310601 0 -0.0154877 0.00821012 0 -0.00597213 0.0165208 0 0.00598764
0.0165323 0 0.0155453 0.00825477 0 -0.00319452 0.017324 0 0.00320133 0.017329
0 -0.0171658 -0.00408336 0 -0.000723266 0.0176555 0 0.000723266 0.0176555 0
0.0172162 -0.00404362 0 -0.0171658 0.00455044 0 0.00781802 -0.0159527 0 -0.00778421
-0.0159796 0 -0.0138571 -0.0111534 0 0.0139177 -0.0111052 0 0.0172162 0.0045897
0 -0.0154877 0.00924127 0 -0.00451419 0.0174994 0 0.0045263 0.0175084 0
0.0155453 0.00928585 0 -0.0171658 0.00592954 0 -0.00597213 0.0171533 0 0.00598764
0.0171648 0 0.0172162 0.00596872 0 0.00639053 -0.0170872 0 -0.00637208 -0.0171018
0 -0.0171658 -0.00622243 0 0.0172162 -0.00618257 0 -0.002 0.0182418 0
0.002 0.0182418 0 -0.0154877 -0.00985753 0 0.0155453 -0.00981172 0 -0.00319452
0.0181891 0 0.00320133 0.0181941 0 -0.0154877 0.0101997 0 0.0155453 0.0102442
0 -0.0171658 0.00721136 0 0.0172162 0.00725047 0 -0.000719385 0.0187075 0
0.000719385 0.0187075 0 -0.00758282 0.0171264 0 0.00759938 0.0171387 0 -0.00597213
0.0178373 0 0.00598764 0.0178488 0 -0.00451419 0.0182994 0 0.0045263 0.0183083
0 -0.005 -0.0181922 0 0.005 -0.0181922 0 -0.018893 -0.00073496 0
-0.018893 0.0011094 0 0.0189314 -0.000704684 0 0.0189314 0.0011396 0 -0.0154877
0.0110905 0 -0.018893 -0.0027193 0 -0.018893 0.00282365 0 -0.0171658 0.00840275
0 0.0189314 -0.00268894 0 0.0155453 0.0111349 0 0.0189314 0.00285377 0
-0.00344538 -0.0188361 0 0.00344538 -0.0188361 0 -0.0171658 -0.00852385 0 0.0172162
0.00844179 0 0.0172162 -0.00848386 0 -0.00758282 0.0177113 0 0.00759938 0.0177235
0 -0.0122727 -0.0149021 0 0.0123323 -0.0148546 0 -0.00175719 -0.0192397 0
[...]
CELL_DATA 15677
FIELD attributes 1
U 3 15677 float
-0.304879 10.2651 0 0.190478 10.9192 0 -0.101145 9.44663 0 0.0315645 10.99
0 0.11884 10.7322 0 -0.0119306 8.75845 0 0.0455365 11.0075 0
0.014478 10.9814 0 0.0577019 10.4719 0 0.0115229 8.22966 0 0.0467076
11.0122 0 0.0433859 11.031 0 0.0260789 10.9286 0 0.0318897 10.191
0 0.0113129 7.85676 0 0.04403 11.0135 0 0.0424001 11.0438 0
0.0427877 11.0208 0 0.0332071 10.8605 0 0.0213463 9.90349 0 0.00642931
7.61297 0 0.0414009 11.0135 0 0.040443 11.046 0 0.0401844 11.0448
0 0.0398527 11.005 0 0.0327748 10.7696 0 0.0159202 9.63863 0
0.00248942 7.46023 0 0.0386667 11.0131 0 0.0389876 11.0452 0 0.0393549
11.0533 0 0.0384502 11.0446 0 0.0357849 10.9829 0 0.0288007 10.6579
0 0.0121295 9.41403 0 0.000544966 7.36418 0 0.0356488 11.0123 0
0.0373728 11.0434 0 0.0386796 11.0559 0 0.0383859 11.0588 0 0.0359669
11.0424 0 0.0317514 10.9535 0 0.0240068 10.534 0 0.00898625 9.23961
0 -1.5296e-06 7.30251 0 0.0323761 11.0112 0 0.0354649 11.041 0
0.0375837 11.0556 0 0.0378112 11.0641 0 0.0360144 11.0636 0 0.0328017
11.037 0 0.0283118 10.9185 0 0.0194098 10.4001 0 0.00642033 9.10943
0 -0.000255586 7.26042 0 0.0289107 11.0101 0 0.0333359 11.0381 0
0.0361793 11.0539 0 0.0368492 11.0653 0 0.0354312 11.072 0 0.0328182
11.0669 0 0.0296766 11.03 0 0.0252897 10.8776 0 0.01538 10.2721
0 0.00436414 9.01513 0 -0.000486245 7.23637 0 0.0253286 11.0089 0
0.0310089 11.0347 0 0.0345144 11.0513 0 0.0356124 11.0644 0 0.0344939
11.0748 0 0.0322302 11.079 0 0.029593 11.0697 0 0.0266641 11.0228
0 0.0220741 10.8328 0 0.0117576 10.1627 0 0.0026222 8.94976 0
-0.000686628 7.2253 0 0.0216418 11.0077 0 0.0284915 11.0311 0 0.0325809
11.048 0 0.0341077 11.0623 0 0.0332635 11.0749 0 0.0312446 11.0838
0 0.0288873 11.0863 0 0.0264138 11.0739 0 0.0233593 11.0165 0
0.018374 10.7875 0 0.00836177 10.0745 0 0.00105879 8.90824 0 -0.00110136
7.2277 0 0.0179468 11.0064 0 0.0258745 11.0272 0 0.0303652 11.0441
0 0.0323184 11.0592 0 0.0317432 11.0733 0 0.0299151 11.085 0
0.0277029 11.0933 0 0.025438 11.0953 0 0.0229037 11.0804 0 0.0196607
11.0117 0 0.0142505 10.7446 0 0.00505027 10.0099 0 -0.000601558 8.88779
0 -0.00172359 7.24339 0 0.0147641 11.0053 0 0.0231914 11.0232 0
0.0278894 11.0398 0 0.0302261 11.0554 0 0.0299236 11.0706 0 0.0282566
11.0841 0 0.0261098 11.0957 0 0.0238841 11.1047 0 0.0215132 11.107
0 0.0188628 11.09 0 0.0154619 11.0095 0 0.0097726 10.7094 0
0.00156225 9.96794 0 -0.00226296 8.88641 0 -0.0023922 7.27274 0 0.0121901
11.0043 0 0.0206431 11.0195 0 0.0251972 11.035 0 0.0278163 11.0509
0 0.0277873 11.0669 0 0.0262636 11.0817 0 0.024132 11.0955 0
0.0218429 11.1084 0 0.0194331 11.1189 0 0.0168894 11.1221 0 0.014105
11.1036 0 0.0105589 11.0117 0 0.00488666 10.685 0 -0.00200984 9.94778
0 -0.00415223 8.90332 0 -0.00322076 7.31585 0 0.01005 11.0034 0
0.0183721 11.0164 0 0.0225797 11.0306 0 0.0250953 11.0457 0 0.0253139
11.0623 0 0.023918 11.0782 0 0.0217662 11.0936 0 0.0193419 11.1089
0 0.0167694 11.124 0 0.0141083 11.1367 0 0.0113758 11.1417 0
0.00844477 11.122 0 0.00485753 11.0199 0 -0.000478082 10.6738 0 -0.00587552
9.94834 0 -0.006242 8.93752 0 -0.00413911 7.37295 0 0.00834715 11.0027
0 0.0163295 11.0136 0 0.020214 11.0267 0 0.0223772 11.0408 0
0.022492 11.0569 0 0.0211979 11.0736 0 0.0189951 11.0903 0 0.0163776
11.1073 0 0.013548 11.1251 0 0.0106236 11.1431 0 0.00769386 11.1589
0 0.00476981 11.1664 0 0.00176668 11.1464 0 -0.001681 11.0359 0
-0.00635007 10.6772 0 -0.0100673 9.9687 0 -0.00854284 8.98895 0 -0.00513835
7.44381 0 0.00697069 11.0021 0 0.0144387 11.0113 0 0.0180323 11.0232
0 0.0198675 11.0363 0 0.0196327 11.0514 0 0.0180873 11.0681 0
0.0157979 11.0858 0 0.0129339 11.1042 0 0.00976225 11.1238 0 0.00645723
11.1449 0 0.00315825 11.1665 0 -4.10796e-05 11.1864 0 -0.00308803 11.1972
0 -0.00601 11.1779 0 -0.00907525 11.0613 0 -0.0127633 10.6963 0
-0.0146166 10.0079 0 -0.0110399 9.05683 0 -0.00620361 7.52824 0 0.00583102
11.0017 0 0.0127257 11.0094 0 0.0160091 11.0202 0 0.0175057 11.0323
0 0.0169629 11.0464 0 0.0149234 11.0623 0 0.0121597 11.0801 0
0.00899301 11.0996 0 0.00539534 11.1207 0 0.0015977 11.1438 0 -0.00221206
11.1689 0 -0.00588635 11.1952 0 -0.00928916 11.2199 0 -0.0123169 11.235
0 -0.0149435 11.2174 0 -0.0173552 11.0973 0 -0.0197328 10.7316 0
-0.01952 10.0653 0 -0.0137251 9.14067 0 -0.0073188 7.62555 0 0.0048971
11.0014 0 0.0111998 11.0078 0 0.0141406 11.0175 0 0.0152963 11.0286
0 0.0144325 11.0418 0 0.0119636 11.0568 0 0.00847257 11.0739 0
0.00454602 11.0936 0 0.000431978 11.1159 0 -0.00397556 11.1406 0 -0.00843665
11.168 0 -0.0127527 11.1981 0 -0.0167349 11.2299 0 -0.0201979 11.2602
0 -0.0229986 11.2805 0 -0.0250763 11.2659 0 -0.0265223 11.1449 0
-0.0272442 10.7833 0 -0.0247566 10.1401 0 -0.0165747 9.2397 0 -0.00848471
7.73511 0 0.00415704 11.0011 0 0.00982257 11.0066 0 0.0124303 11.0153
0 0.0132429 11.0254 0 0.012059 11.0375 0 0.00916088 11.0516 0
0.00503527 11.0679 0 7.28613e-05 11.0869 0 -0.00512819 11.1094 0 -0.0102766
11.1354 0 -0.0155427 11.1645 0 -0.0206721 11.1972 0 -0.025426 11.2332
0 -0.0295672 11.2714 0 -0.0328751 11.3082 0 -0.0351893 11.3346 0
-0.0364107 11.3243 0 -0.0365462 11.2049 0 -0.0352709 10.851 0 -0.0303075
10.2313 0 -0.0195737 9.35317 0 -0.00967839 7.85614 0 0.00358992 11.001
0 0.00865084 11.0056 0 0.0108759 11.0133 0 0.0113487 11.0226 0
0.00985364 11.0336 0 0.00654138 11.0467 0 0.0017955 11.0619 0 -0.00407027
11.0802 0 -0.0106806 11.102 0 -0.0172959 11.1282 0 -0.0235449 11.1588
0 -0.0296818 11.1933 0 -0.0354116 11.2321 0 -0.0404479 11.2749 0
-0.0445197 11.3203 0 -0.0473954 11.3646 0 -0.0489 11.3979 0 -0.0489106
11.3929 0 -0.0473658 11.2775 0 -0.0437707 10.9345 0 -0.0361319 10.338
0 -0.0226801 9.48001 0 -0.0108714 7.98746 0 0.00315058 11.0008 0
0.00769246 11.0048 0 0.0095162 11.0118 0 0.00961669 11.02 0 0.007824
11.0301 0 0.00412349 11.0421 0 -0.00121194 11.0563 0 -0.00794806 11.0735
0 -0.01579 11.0944 0 -0.0242644 11.1199 0 -0.032423 11.1507 0
-0.0397993 11.1868 0 -0.0467434 11.2277 0 -0.0529129 11.2736 0 -0.0579877
11.324 0 -0.0616883 11.3774 0 -0.0637802 11.4298 0 -0.0640942 11.4708
0 -0.0625046 11.4723 0 -0.0589007 11.3629 0 -0.0526779 11.0328 0
-0.0421578 10.4588 0 -0.0258447 9.61893 0 -0.0120502 8.12779 0 0.00280401
11.0007 0 0.00690509 11.0042 0 0.00838494 11.0105 0 0.00810904 11.0179
0 0.00597537 11.0269 0 0.0019202 11.0378 0 -0.00396071 11.0508 0
-0.0115171 11.0668 0 -0.0205389 11.0866 0 -0.0306422 11.1111 0 -0.0411989
11.141 0 -0.0509936 11.1775 0 -0.0594451 11.2201 0 -0.0670333 11.2684
0 -0.0733824 11.3222 0 -0.0781654 11.3811 0 -0.081108 11.4433 0
-0.0819974 11.5044 0 -0.0806904 11.5537 0 -0.0770795 11.5626 0 -0.0710308
11.4607 0 -0.0618849 11.145 0 -0.0483279 10.5926 0 -0.0290302 9.7686
0 -0.0132039 8.27583 0 0.00252631 11.0006 0 0.00625574 11.0038 0
0.00744982 11.0095 0 0.00686443 11.0161 0 0.0043814 11.0241 0 -5.95864e-05
11.0338 0 -0.00643158 11.0457 0 -0.0147427 11.0603 0 -0.0248737 11.0788
0 -0.0365354 11.1019 0 -0.0491983 11.1308 0 -0.0620274 11.1662 0
-0.0734752 11.2093 0 -0.0828432 11.2596 0 -0.0908016 11.3161 0 -0.0969703
11.3788 0 -0.101033 11.4469 0 -0.10275 11.5183 0 -0.101955 11.5886
0 -0.0985589 11.6466 0 -0.0925041 11.6635 0 -0.0836332 11.5704 0
-0.0712847 11.27 0 -0.0545699 10.738 0 -0.0322008 9.92755 0 -0.0143105
8.43017 0 0.00230075 11.0006 0 0.00571583 11.0034 0 0.00667074 11.0087
0 0.00584265 11.0147 0 0.00308152 11.0218 0 -0.00173539 11.0303 0
-0.00861069 11.0408 0 -0.0175983 11.0541 0 -0.0287497 11.071 0 -0.0418775
11.0926 0 -0.0565572 11.1199 0 -0.0720578 11.1542 0 -0.0872819 11.1961
0 -0.100293 11.247 0 -0.110296 11.3059 0 -0.118234 11.3716 0
-0.123748 11.4438 0 -0.126567 11.5216 0 -0.126516 11.6028 0 -0.123512
11.6825 0 -0.117539 11.7494 0 -0.108598 11.7747 0 -0.0965675 11.6914
0 -0.0807898 11.4063 0 -0.0608037 10.8933 0 -0.0353173 10.0942 0
-0.0153598 8.58936 0 0.00211537 11.0005 0 0.00526392 11.0031 0 0.00601765
11.008 0 0.00499994 11.0135 0 0.00202956 11.0198 0 -0.00307139 11.0273
0 -0.0104088 11.0364 0 -0.0200641 11.048 0 -0.0321312 11.0633 0
-0.0466113 11.0831 0 -0.0631933 11.1087 0 -0.0812585 11.1412 0 -0.099815
11.1818 0 -0.117455 11.2314 0 -0.131809 11.2911 0 -0.14203 11.3596
0 -0.149429 11.4353 0 -0.153705 11.5178 0 -0.15467 11.6057 0
-0.152252 11.6968 0 -0.146471 11.786 0 -0.137418 11.8619 0 -0.125175
11.8957 0 -0.10967 11.8224 0 -0.0902861 11.5526 0 -0.0669545 11.057
0 -0.0383472 10.2671 0 -0.0163538 8.752 0 0.00196146 11.0004 0
0.0048831 11.0029 0 0.00546661 11.0074 0 0.00430227 11.0125 0 0.00117701
11.0182 0 -0.00412405 11.0247 0 -0.0117963 11.0325 0 -0.0220391 11.0425
0 -0.0349912 11.0558 0 -0.0506899 11.0737 0 -0.0690334 11.0971 0
-0.0895265 11.1276 0 -0.111294 11.1663 0 -0.133027 11.2144 0 -0.152973
11.2728 0 -0.168308 11.3423 0 -0.178187 11.4214 0 -0.184395 11.5078
0 -0.186738 11.6009 0 -0.185157 11.6993 0 -0.179721 11.8003 0
-0.170589 11.8989 0 -0.157962 11.9834 0 -0.142037 12.0257 0 -0.122789
11.9625 0 -0.0996628 11.7074 0 -0.0729611 11.2275 0 -0.0412701 10.4445
0 -0.0172078 8.91697 0 0.00183248 11.0004 0 0.00456027 11.0027 0
0.00500169 11.007 0 0.00372217 11.0116 0 0.000484872 11.0168 0 -0.00495098
11.0226 0 -0.0128464 11.0292 0 -0.0235037 11.0376 0 -0.0372127 11.0488
0 -0.0540765 11.0643 0 -0.0740163 11.0855 0 -0.0967689 11.1135 0
-0.12159 11.1498 0 -0.147285 11.1958 0 -0.172187 11.2526 0 -0.194187
11.3208 0 -0.209974 11.4013 0 -0.218784 11.4917 0 -0.223014 11.5894
0 -0.222638 11.6934 0 -0.217769 11.8022 0 -0.208648 11.913 0
-0.19559 12.0205 0 -0.178932 12.1134 0 -0.15898 12.1637 0 -0.13578
12.1103 0 -0.10882 11.869 0 -0.0787794 11.4032 0 -0.0440176 10.6253
0 -0.0185165 9.0815 0 0.00172346 11.0004 0 0.00428528 11.0025 0
0.00460444 11.0066 0 0.00323749 11.0109 0 -7.8208e-05 11.0156 0 -0.00559869
11.0207 0 -0.013631 11.0264 0 -0.0245542 11.0334 0 -0.0387889 11.0426
0 -0.0566326 11.0555 0 -0.0780924 11.0738 0 -0.102906 11.0991 0
-0.130586 11.1326 0 -0.160069 11.176 0 -0.189793 11.2305 0 -0.217712
11.2971 0 -0.241324 11.3763 0 -0.25685 11.4686 0 -0.263715 11.571
0 -0.265078 11.6802 0 -0.26113 11.7952 0 -0.252197 11.9142 0
-0.238719 12.0344 0 -0.221183 12.1504 0 -0.200073 12.2509 0 -0.175809
12.3087 0 -0.148503 12.2645 0 -0.117687 12.036 0 -0.0843389 11.5826
0 -0.0472211 10.8071 0 -0.019739 9.2753 0 0.00163056 11.0004 0
0.00405011 11.0024 0 0.00426365 11.0063 0 0.00283333 11.0103 0 -0.000537526
11.0146 0 -0.00610451 11.0191 0 -0.0142083 11.0239 0 -0.0252834 11.0297
0 -0.039848 11.0372 0 -0.0583671 11.0476 0 -0.0810944 11.0627 0
-0.107872 11.0846 0 -0.138178 11.115 0 -0.171231 11.1551 0 -0.205595
11.2067 0 -0.239305 11.2709 0 -0.269883 11.3485 0 -0.294478 11.4396
0 -0.308858 11.5445 0 -0.312771 11.6594 0 -0.310283 11.7804 0
-0.30186 11.9062 0 -0.288071 12.035 0 -0.26958 12.1639 0 -0.247062
12.2877 0 -0.221138 12.395 0 -0.192333 12.4596 0 -0.160847 12.4238
0 -0.12617 12.207 0 -0.090023 11.7638 0 -0.0500377 11.0104 0
-0.0200563 9.4744 0 0.00155081 11.0003 0 0.00384821 11.0023 0 0.003972
11.006 0 0.00249344 11.0097 0 -0.000912993 11.0137 0 -0.00649832 11.0177
0 -0.0146248 11.0218 0 -0.0257657 11.0265 0 -0.0405101 11.0324 0
-0.0594491 11.0406 0 -0.0830495 11.0527 0 -0.111461 11.0706 0 -0.14428
11.0969 0 -0.180638 11.1335 0 -0.219406 11.1815 0 -0.258723 11.2425
0 -0.296163 11.3176 0 -0.328847 11.4073 0 -0.353605 11.5113 0
-0.365789 11.6294 0 -0.365615 11.7571 0 -0.358222 11.8897 0 -0.344394
12.0259 0 -0.324974 12.1639 0 -0.300866 12.3008 0 -0.272921 12.4314
0 -0.241886 12.5447 0 -0.2084 12.615 0 -0.172689 12.5869 0
-0.134473 12.3801 0 -0.0954206 11.9663 0 -0.0518669 11.2332 0 -0.0204523
9.66904 0 0.00148179 11.0003 0 0.00367426 11.0022 0 0.00372179 11.0057
0 0.00220568 11.0093 0 -0.00122115 11.0129 0 -0.00680394 11.0165 0
-0.0149175 11.0199 0 -0.0260606 11.0237 0 -0.0408717 11.0282 0 -0.0600347
11.0345 0 -0.0841784 11.0438 0 -0.11372 11.058 0 -0.148635 11.0795
0 -0.188176 11.1113 0 -0.231056 11.1552 0 -0.275735 11.2123 0
-0.319869 11.2841 0 -0.36058 11.3714 0 -0.394607 11.4742 0 -0.418503
11.5917 0 -0.427281 11.7235 0 -0.421795 11.8639 0 -0.408407 12.0078
0 -0.388255 12.1539 0 -0.362477 12.3003 0 -0.332206 12.4443 0
-0.298463 12.5806 0 -0.262113 12.6987 0 -0.223848 12.774 0 -0.184097
12.752 0 -0.142791 12.574 0 -0.100213 12.1892 0 -0.0538704 11.4521
0 -0.0208761 9.85711 0 0.00142223 11.0003 0 0.00352363 11.0021 0
0.00350583 11.0055 0 0.00196149 11.0089 0 -0.00147507 11.0122 0 -0.00704029
11.0154 0 -0.0151154 11.0183 0 -0.0262148 11.0212 0 -0.0410093 11.0246
0 -0.0602487 11.0291 0 -0.0846822 11.0359 0 -0.114933 11.0467 0
-0.15131 11.0637 0 -0.193522 11.0897 0 -0.240396 11.1281 0 -0.29013
11.1807 0 -0.340716 11.2482 0 -0.38932 11.3321 0 -0.432612 11.4326
0 -0.466987 11.5495 0 -0.48881 11.6812 0 -0.492845 11.8267 0
-0.480765 11.9796 0 -0.460288 12.1343 0 -0.432937 12.2895 0 -0.400138
12.4433 0 -0.363244 12.5932 0 -0.323426 12.7342 0 -0.281614 12.8562
0 -0.238633 12.9348 0 -0.195768 12.9372 0 -0.150675 12.7878 0
-0.104793 12.4089 0 -0.0557945 11.6646 0 -0.0212276 10.0373 0 0.00339199
11.0021 0 0.00135016 11.0003 0 0.00331752 11.0053 0 0.00175365 11.0085
0 -0.00168493 11.0116 0 -0.0072223 11.0145 0 -0.0152415 11.0169 0
-0.0262648 11.0191 0 -0.040983 11.0213 0 -0.0601902 11.0243 0 -0.0847224
11.029 0 -0.115359 11.0367 0 -0.152666 11.0495 0 -0.196762 11.0701
0 -0.247018 11.1016 0 -0.301711 11.1478 0 -0.358439 11.2104 0
-0.414717 11.2899 0 -0.467196 11.3871 0 -0.512126 11.502 0 -0.545635
11.6335 0 -0.564012 11.7797 0 -0.561878 11.9389 0 -0.541898 12.1039
0 -0.513278 12.2686 0 -0.47792 12.4318 0 -0.437528 12.592 0
-0.393649 12.7466 0 -0.347553 12.8912 0 -0.300255 13.0155 0 -0.253966
13.1154 0 -0.207176 13.1417 0 -0.15785 12.999 0 -0.108936 12.623
0 -0.0574369 11.869 0 -0.0214879 10.209 0 0.00315234 11.0051 0
0.00323771 11.002 0 0.00126292 11.0003 0 0.00157473 11.0082 0 -0.00185882
11.0111 0 -0.00736148 11.0137 0 -0.0153137 11.0156 0 -0.0262394 11.0172
0 -0.0408396 11.0185 0 -0.0599366 11.0201 0 -0.0844266 11.0228 0
-0.115203 11.0278 0 -0.15303 11.0369 0 -0.198348 11.0524 0 -0.25102
11.0774 0 -0.30996 11.1156 0 -0.372785 11.1711 0 -0.436443 11.2452
0 -0.497937 11.3379 0 -0.553426 11.4496 0 -0.598803 11.5798 0
-0.630033 11.7266 0 -0.64346 11.8873 0 -0.633676 12.0599 0 -0.604516
12.2361 0 -0.566764 12.4098 0 -0.52269 12.58 0 -0.474243 12.7452
0 -0.423106 12.9035 0 -0.370641 13.0501 0 -0.319739 13.1944 0
-0.269234 13.3147 0 -0.217443 13.3437 0 -0.164264 13.2052 0 -0.112483
12.8297 0 -0.0587863 12.0645 0 -0.0216497 10.3719 0 0.00141442 11.0079
0 0.0029726 11.0049 0 0.00304417 11.0019 0 0.00117904 11.0002 4.25972e-19
-0.00200473 11.0107 0 -0.00746663 11.0129 0 -0.0153454 11.0146 0 -0.0261604
11.0155 0 -0.0406152 11.016 0 -0.0595479 11.0164 0 -0.0838945 11.0174
0 -0.114628 11.0199 0 -0.152662 11.0256 0 -0.198687 11.0365 0
-0.25296 11.0555 0 -0.314981 11.086 0 -0.383097 11.1323 0 -0.454176
11.1984 0 -0.52443 11.2855 0 -0.590381 11.3929 0 -0.64774 11.5203
0 -0.69214 11.6664 0 -0.719509 11.8288 0 -0.72639 12.0038 0
-0.70747 12.189 0 -0.667913 12.3757 0 -0.620142 12.5572 0 -0.56676
12.733 0 -0.509901 12.9021 0 -0.451349 13.0625 0 -0.39489 13.2287
0 -0.339391 13.392 0 -0.282942 13.5118 0 -0.22661 13.5413 0
-0.169804 13.4046 0 -0.115455 13.028 0 -0.0598615 12.2505 0 -0.0217166
10.5256 0 -0.00213841 11.0103 0 0.00125998 11.0076 0 0.00276024 11.0047
1.865e-18 0.00285682 11.0018 -1.3487e-18 0.0010981 11.0002 -8.64502e-19 -0.00754632 11.0123 0
-0.0153465 11.0136 0 -0.0260444 11.0141 0 -0.0403375 11.0138 0 -0.0590703
11.0131 0 -0.083203 11.0126 0 -0.113764 11.013 0 -0.151772 11.0156
0 -0.198109 11.0224 0 -0.253342 11.0358 0 -0.317449 11.0592 0
-0.389466 11.0964 0 -0.467081 11.1521 0 -0.546272 11.2305 0 -0.622499
11.3322 0 -0.69185 11.4555 0 -0.74967 11.5995 0 -0.791456 11.7621
0 -0.81325 11.9399 0 -0.811944 12.1289 0 -0.782445 12.3259 0
-0.731375 12.5217 0 -0.672829 12.7097 0 -0.60967 12.8898 0 -0.544168
13.0613 0 -0.48112 13.2412 0 -0.419561 13.426 0 -0.357077 13.5874
0 -0.295168 13.7047 0 -0.234588 13.7327 0 -0.174498 13.5963 0
-0.117898 13.2173 0 -0.0606882 12.4268 0 -0.0217012 10.6701 0 -0.007624
11.0118 0 -0.00222856 11.0098 -3.77515e-18 0.00109453 11.0071 -1.96375e-18 0.00255522 11.0044
9.46768e-19 0.0026729 11.0017 -9.12037e-19 0.0010202 11.0002 0 -0.0153262 11.0127 0
-0.0259026 11.0128 0 -0.0400268 11.0119 0 -0.058539 11.0103 0 -0.0824112
11.0083 0 -0.112707 11.0068 0 -0.150522 11.0068 0 -0.196875 11.0098
0 -0.252575 11.0183 0 -0.317981 11.035 0 -0.392699 11.0638 0
-0.475215 11.1091 0 -0.562407 11.1757 0 -0.649281 11.2681 0 -0.730543
11.3858 0 -0.801935 11.5262 0 -0.858557 11.6876 0 -0.895912 11.8669
0 -0.910327 12.06 0 -0.899201 12.262 0 -0.857768 12.4697 0
-0.79421 12.6732 0 -0.724279 12.8664 0 -0.651015 13.0493 0 -0.580406
13.2405 0 -0.511604 13.4389 0 -0.441843 13.6213 0 -0.372865 13.7788
0 -0.305854 13.8918 0 -0.241396 13.9169 0 -0.178403 13.7796 0
-0.119858 13.3972 0 -0.061297 12.5931 0 -0.021618 10.8054 0 -0.0153185
11.012 0 -0.00760336 11.0111 7.94518e-18 -0.00227878 11.0092 0 0.000933873 11.0067
1.99234e-18 0.00235834 11.0042 5.62581e-22 0.0024933 11.0015 0 0.000945366 11.0002 0
-0.0257446 11.0116 0 -0.0396965 11.0102 0 -0.0579795 11.0077 0 -0.081564
11.0046 0 -0.111534 11.0013 0 -0.149036 10.9989 0 -0.19519 10.9987
0 -0.250986 11.0026 0 -0.31708 11.0134 0 -0.393543 11.0344 0
-0.479529 11.0699 0 -0.572824 11.1247 0 -0.669398 11.204 0 -0.763205
11.3119 0 -0.848238 11.4471 0 -0.920025 11.6056 0 -0.973562 11.7848
0 -1.00454 11.9807 0 -1.00974 12.1885 0 -0.987206 12.4026 0
-0.93261 12.6196 0 -0.85576 12.8295 0 -0.773994 13.026 0 -0.694881
13.2291 0 -0.617692 13.439 0 -0.539242 13.6348 0 -0.461762 13.8126
0 -0.386724 13.9645 0 -0.315024 14.072 0 -0.247113 14.0933 0
-0.181586 13.954 0 -0.121386 13.5673 0 -0.061718 12.7494 0 -0.0214795
10.9317 0 -0.0256195 11.0106 0 -0.015136 11.0111 5.93934e-22 -0.00745691 11.0103
0 -0.00232832 11.0086 -2.09637e-18 0.000782905 11.0063 3.96696e-22 0.00216873 11.0039 0
0.002318 11.0015 0 0.00087362 11.0002 0 -0.0393563 11.0087 0 -0.0574076
11.0055 0 -0.0806938 11.0013 0 -0.110302 10.9965 0 -0.147411 10.9919
0 -0.193213 10.9887 0 -0.24883 10.9886 0 -0.315149 10.994 0
-0.392609 11.008 0 -0.480914 11.0344 0 -0.578628 11.0781 0 -0.68273
11.144 0 -0.78818 11.2376 0 -0.887833 11.3627 0 -0.975043 11.5167
0 -1.04531 11.6941 0 -1.0937 11.8913 0 -1.11627 12.1035 0
-1.11043 12.325 0 -1.07501 12.5499 0 -1.00618 12.7747 0 -0.915412
12.9891 0 -0.826909 13.2064 0 -0.740199 13.4286 0 -0.651632 13.6359
0 -0.564009 13.8269 0 -0.479305 13.9985 0 -0.398692 14.1436 0
-0.322776 14.2448 0 -0.25183 14.2613 0 -0.184118 14.1193 0 -0.122534
13.7277 0 -0.0619779 12.896 0 -0.0212971 11.0493 0 -0.0390763 11.0073
0 -0.025214 11.0095 -4.39381e-18 -0.0146988 11.0101 0 -0.00731694 11.0095 0
-0.00236412 11.008 6.37709e-18 0.00064124 11.0059 0 0.0019864 11.0037 0 0.00214716
11.0014 1.90045e-18 0.000805 11.0001 0 -0.0568335 11.0035 0 -0.0798193 10.9984
0 -0.109052 10.9923 0 -0.14572 10.9858 0 -0.191065 10.98 0
-0.246306 10.9762 0 -0.312505 10.9768 0 -0.390386 10.9843 0 -0.480103
11.0025 0 -0.580866 11.0357 0 -0.690537 11.089 0 -0.805184 11.1679
0 -0.91867 11.2775 0 -1.02273 11.4213 0 -1.11021 11.5952 0
-1.1768 11.7919 0 -1.21785 12.007 0 -1.22998 12.2348 0 -1.21136
12.4688 0 -1.16172 12.7032 0 -1.07775 12.9338 0 -0.979107 13.17
0 -0.881759 13.4072 0 -0.781587 13.6268 0 -0.682124 13.8292 0
-0.585897 14.0136 0 -0.494526 14.1779 0 -0.408878 14.3154 0 -0.329226
14.4095 0 -0.255645 14.4207 0 -0.186074 14.2752 0 -0.12335 13.8784
0 -0.0621019 13.033 0 -0.0210812 11.1586 0 -0.0563557 11.0017 0
-0.0383723 11.0058 0 -0.0243688 11.0081 -4.80179e-18 -0.0142803 11.009 -4.63404e-18 -0.00715707
11.0088 -8.93864e-18 -0.00238588 11.0075 0 0.000508862 11.0056 -4.15192e-18 0.00181155 11.0035
-3.99875e-18 0.00198077 11.0013 1.92454e-18 0.000739402 11.0001 0 -0.0789516 10.9958 0
-0.107807 10.9885 0 -0.144015 10.9803 0 -0.188838 10.9722 0 -0.243567
10.9652 0 -0.309394 10.9614 0 -0.387266 10.9631 0 -0.477689 10.9738
0 -0.58041 10.9974 0 -0.694041 11.0388 0 -0.815632 11.1036 0
-0.940237 11.1971 0 -1.06055 11.3246 0 -1.16722 11.4885 0 -1.25279