# vtk DataFile Version 2.0
sampleSurface
ASCII
DATASET POLYDATA
POINTS 15978 float
-4.26165e-19 0.000133477 0 -4.18079e-19 -0.000798814 0 -4.33681e-19 0.001 0 -4.09379e-19 -0.00180187
0 -0.00181681 0.000361473 0 0.00181681 0.000361473 0 -0.00181396 -0.000575145 0
0.00181396 -0.000575145 0 -0.00181945 0.00123202 0 0.00181945 0.00123202 0 -0.00181089
-0.00158285 0 0.00181089 -0.00158285 0 -4.00018e-19 -0.00288105 0 -0.00180759 -0.00266704
0 0.00180759 -0.00266704 0 -0.00351565 8.15481e-05 0 0.00351565 8.15481e-05 0
-0.00351186 -0.000939823 0 0.00351186 -0.000939823 0 -0.00351918 0.00103087 0 0.00351918
0.00103087 0 -0.00352245 0.00191322 0 0.00352245 0.00191322 0 -3.89947e-19 -0.00404214
0 -0.00350777 -0.00203871 0 0.00350777 -0.00203871 0 -0.00180405 -0.00383352 0
0.00180405 -0.00383352 0 -0.00350338 -0.00322101 0 0.00350338 -0.00322101 0 -0.005
8.60602e-05 0 0.005 8.60602e-05 0 -0.005 -0.00103629 0 0.005 -0.00103629
0 -0.005 0.00112923 0 0.005 0.00112923 0 -3.79112e-19 -0.00529135 0
-0.00180023 -0.00508853 0 0.00180023 -0.00508853 0 -0.005 0.00209882 0 0.005
0.00209882 0 -0.005 -0.00224382 0 0.005 -0.00224382 0 -0.00349866 -0.00449304
0 0.00349866 -0.00449304 0 -0.005 0.003 0 0.005 0.003 0
-0.005 -0.003543 0 0.005 -0.003543 0 -0.00637208 2.82617e-05 0 0.00639053
4.25732e-05 0 -0.00637208 0.00114892 0 -0.00637208 -0.00117745 0 0.00639053 -0.00116311
0 0.00639053 0.00116321 0 -3.67455e-19 -0.00663538 0 -0.00179612 -0.00643879 0
0.00179612 -0.00643879 0 -0.00637208 0.00219052 0 0.00639053 0.00220479 0 -0.00349357
-0.00586162 0 0.00349357 -0.00586162 0 -0.00637208 -0.00247467 0 0.00639053 -0.00246031
0 -0.005 -0.00494079 0 0.005 -0.00494079 0 -0.00637208 0.00315864 0
0.00639053 0.00317289 0 -0.00637208 -0.00387036 0 0.00639053 -0.00385597 0 -0.00637208
0.00405846 0 0.00639053 0.00407269 0 -0.00778421 -7.99569e-05 0 0.00781802 -5.3679e-05
0 -0.00778421 0.00112388 0 0.00781802 0.00115011 0 -0.00778421 -0.00137517 0
0.00781802 -0.00134884 0 -3.54912e-19 -0.00808142 0 -0.0017917 -0.00789154 0 0.0017917
-0.00789154 0 -0.00778421 0.0022428 0 -0.0034881 -0.00733407 0 0.0034881 -0.00733407
0 0.00781802 0.00226899 0 -0.005 -0.00644467 0 0.005 -0.00644467 0
-0.00778421 -0.00276868 0 0.00781802 -0.0027423 0 -0.00637208 -0.00537197 0 0.00639053
-0.00535755 0 -0.00778421 0.00328278 0 0.00781802 0.00330893 0 -0.00778421 0.00424939
0 -0.00778421 -0.00426796 0 0.00781802 -0.00424152 0 0.00781802 0.00427551 0
-0.00923755 -0.000243565 0 0.00928347 -0.000207818 0 -0.00923755 0.00104957 0 -0.00778421
0.00514782 0 0.00928347 0.00108525 0 0.00781802 0.0051739 0 -0.00923755 -0.00163485
0 0.00928347 -0.00159903 0 -0.00637208 -0.00698755 0 0.00639053 -0.0069731 0
-0.005 -0.0080627 0 0.005 -0.0080627 0 -0.00923755 0.00225148 0 0.00928347
0.0022871 0 -0.00348222 -0.00891827 0 0.00348222 -0.00891827 0 -0.00178695 -0.00945455
0 0.00178695 -0.00945455 0 -3.41418e-19 -0.00963721 0 -0.00923755 -0.00313172 0
-0.00778421 -0.00588103 0 0.00781802 -0.00585453 0 0.00928347 -0.00309583 0 -0.00923755
0.0033686 0 0.00928347 0.00340416 0 -0.00923755 0.00440692 0 0.00928347 0.00444243
0 -0.00923755 -0.00474221 0 0.00928347 -0.00470623 0 -0.00923755 0.00537198 0
-0.0107333 -0.000467921 0 0.00928347 0.00540745 0 -0.0107333 0.000921062 0 0.0107879
-0.000425364 0 0.00639053 -0.00871127 0 -0.00637208 -0.00872575 0 0.0107879 0.000963535
0 -0.00778421 -0.00761653 0 0.00781802 -0.00758997 0 -0.0107333 -0.00196233 0
0.0107879 -0.00191968 0 -0.0107333 0.00221206 0 -0.005 -0.00980352 0 0.005
-0.00980352 0 0.0107879 0.00225445 0 -0.00923755 0.00626897 0 -0.00347589 -0.0106227
0 0.00347589 -0.0106227 0 0.00928347 0.00630439 0 -0.0107333 0.00341198 0
-0.00178183 -0.0111362 0 0.00178183 -0.0111362 0 -0.00923755 -0.00647493 0 0.00928347
-0.00643887 0 -3.26899e-19 -0.0113111 0 -0.0107333 -0.00357015 0 0.0107879 0.00345431
0 0.0107879 -0.00352741 0 -0.0107333 0.00452726 0 0.0107879 0.00456952 0
-0.0107333 -0.00530001 0 0.0107879 -0.00525717 0 -0.0107333 0.00556386 0 0.0107879
0.00560606 0 -0.000743369 0.0122055 0 0.000743369 0.0122055 0 -0.00778421 -0.00948375
0 0.00781802 -0.00945713 0 -0.0122727 0.000733061 0 -0.0122727 -0.000758799 0
0.0123323 -0.000712262 0 0.0123323 0.0007795 0 0.00639053 -0.0105814 0 -0.00637208
-0.0105959 0 -0.00923755 -0.00833916 0 -0.0122727 0.00211968 0 0.00928347 -0.00830301
0 -0.0122727 -0.00236389 0 0.0123323 0.00216603 0 0.0123323 -0.00231725 0
-0.0107333 0.00652734 0 0.0107879 0.00656947 0 -0.005 -0.0116765 0 0.005
-0.0116765 0 -0.0122727 0.00340848 0 0.0123323 0.00345474 0 -0.000741126 0.0128136
0 0.000741126 0.0128136 0 -0.0107333 -0.00716117 0 0.0107879 -0.00711821 0
-0.00346908 -0.0124565 0 0.00346908 -0.0124565 0 -0.0122727 -0.00409081 0 0.0123323
-0.00404405 0 -0.0107333 0.00742284 0 -0.00177633 -0.0129455 0 0.00177633 -0.0129455
0 -0.0122727 0.00460636 0 -3.11279e-19 -0.013112 0 0.0107879 0.00746492 0
-0.002 0.013 0 0.002 0.013 0 0.0123323 0.00465255 0 -0.0007387
0.0134712 0 0.0007387 0.0134712 0 -0.0122727 0.00571974 0 0.0123323 0.00576585
0 -0.0122727 -0.00594879 0 0.0123323 -0.00590191 0 -0.002 0.0135849 0
0.002 0.0135849 0 -0.0138571 0.000479853 0 -0.00923755 -0.0103449 0 0.00928347
-0.0103086 0 0.00781802 -0.011466 0 -0.00778421 -0.0114927 0 -0.0138571 -0.00112242
0 0.0139177 0.000527252 0 0.0139177 -0.00107491 0 -0.0138571 0.0019691 0
-0.0122727 0.00675458 0 0.0139177 0.00201639 0 0.0123323 0.00680062 0 -0.0107333
-0.00916358 0 0.00639053 -0.0125934 0 0.0107879 -0.0091205 0 -0.00637208 -0.012608
0 -0.0138571 -0.0028463 0 0.0139177 -0.00279868 0 -0.000736077 0.0141824 0
0.000736077 0.0141824 0 -0.00319452 0.0138829 0 0.00320133 0.0138879 0 -0.0138571
0.00335328 0 0.0139177 0.00340049 0 -0.002 0.0142174 0 0.002 0.0142174
0 -0.0122727 0.00771641 0 0.0123323 0.00776239 0 -0.005 -0.0136916 0
0.005 -0.0136916 0 -0.0138571 0.00463982 0 -0.0122727 -0.0079478 0 -0.0138571
-0.00470103 0 0.0123323 -0.00790078 0 0.0139177 -0.00465328 0 0.0139177 0.00468694
0 -0.00319452 0.0144678 0 0.00320133 0.0144728 0 -0.00346175 -0.0144295 0
0.00346175 -0.0144295 0 -0.00073324 0.0149515 0 0.00073324 0.0149515 0 -0.0122727
0.00861039 0 -0.00177041 -0.0148921 0 0.00177041 -0.0148921 0 -0.002 0.0149014
0 0.002 0.0149014 0 -0.0138571 0.0058356 0 -2.94473e-19 -0.0150496 0
0.0123323 0.00865631 0 0.0139177 0.00588264 0 -0.0138571 -0.00669653 0 0.0139177
-0.00664864 0 -0.00319452 0.0151003 0 0.00320133 0.0151053 0 -0.0154877 0.000155282
0 -0.0138571 0.00694702 0 -0.00451419 0.0148583 0 0.0045263 0.0148673 0
0.00928347 -0.0124665 0 -0.00923755 -0.0125028 0 0.0155453 0.000200444 0 -0.0154877
-0.00156548 0 0.0139177 0.00699399 0 -0.0154877 0.00175466 0 -0.0107333 -0.011318
0 0.0107879 -0.0112748 0 0.0155453 -0.00152021 0 0.0155453 0.00179972 0
0.00781802 -0.0136273 0 -0.00778421 -0.0136541 0 -0.002 0.0156411 0 0.002
0.0156411 0 -0.000730172 0.0157833 0 0.000730172 0.0157833 0 -0.0154877 0.0032412
0 -0.0154877 -0.00341685 0 0.0155453 0.00328617 0 -0.0122727 -0.0100985 0
0.0155453 -0.00337146 0 0.0123323 -0.0100514 0 -0.0138571 0.00798004 0 0.0139177
0.00802694 0 0.00639053 -0.0147581 0 -0.00637208 -0.0147727 0 -0.00451419 0.0154432
0 0.0045263 0.0154521 0 -0.00319452 0.0157843 0 0.00320133 0.0157893 0
-0.0154877 0.00462288 0 0.0155453 0.00466776 0 -0.0154877 -0.00540874 0 -0.0138571
-0.00884348 0 0.0155453 -0.00536322 0 0.0139177 -0.00879545 0 -0.0138571 0.00894019
0 -0.002 0.0164411 0 0.002 0.0164411 0 0.0139177 0.00898702 0
-0.0154877 0.00590709 0 -0.005 -0.0158596 0 0.005 -0.0158596 0 0.0155453
0.00595189 0 -0.00451419 0.0160757 0 -0.000726854 0.0166828 0 0.000726854 0.0166828
0 0.0045263 0.0160846 0 -0.00319452 0.016524 0 0.00320133 0.016529 0
-0.00345386 -0.0165523 0 0.00345386 -0.0165523 0 -0.0138571 0.0098326 0 -0.00597213
0.0159359 0 0.00598764 0.0159474 0 -0.0154877 0.00710071 0 0.0139177 0.00987937
0 -0.00176404 -0.0169864 0 0.00176404 -0.0169864 0 0.0155453 0.00714543 0
-2.76391e-19 -0.0171343 0 -0.0171658 -0.000247278 0 0.0172162 -0.000207752 0 -0.0171658
0.00147028 0 -0.0154877 -0.0075518 0 0.0155453 -0.00750615 0 0.0172162 0.00150971
0 -0.0171658 -0.00209519 0 0.0172162 -0.00205556 0 0.0107879 -0.0135925 0
-0.0107333 -0.0136359 0 -0.00451419 0.0167597 0 0.0045263 0.0167686 0 -0.002
0.0173062 0 0.002 0.0173062 0 -0.0171658 0.00306667 0 -0.0122727 -0.0124125
0 0.00928347 -0.0147881 0 0.0123323 -0.0123652 0 -0.00923755 -0.0148246 0
0.0172162 0.00310601 0 -0.0154877 0.00821012 0 -0.00597213 0.0165208 0 0.00598764
0.0165323 0 0.0155453 0.00825477 0 -0.00319452 0.017324 0 0.00320133 0.017329
0 -0.0171658 -0.00408336 0 -0.000723266 0.0176555 0 0.000723266 0.0176555 0
0.0172162 -0.00404362 0 -0.0171658 0.00455044 0 0.00781802 -0.0159527 0 -0.00778421
-0.0159796 0 -0.0138571 -0.0111534 0 0.0139177 -0.0111052 0 0.0172162 0.0045897
0 -0.0154877 0.00924127 0 -0.00451419 0.0174994 0 0.0045263 0.0175084 0
0.0155453 0.00928585 0 -0.0171658 0.00592954 0 -0.00597213 0.0171533 0 0.00598764
0.0171648 0 0.0172162 0.00596872 0 0.00639053 -0.0170872 0 -0.00637208 -0.0171018
0 -0.0171658 -0.00622243 0 0.0172162 -0.00618257 0 -0.002 0.0182418 0
0.002 0.0182418 0 -0.0154877 -0.00985753 0 0.0155453 -0.00981172 0 -0.00319452
0.0181891 0 0.00320133 0.0181941 0 -0.0154877 0.0101997 0 0.0155453 0.0102442
0 -0.0171658 0.00721136 0 0.0172162 0.00725047 0 -0.000719385 0.0187075 0
0.000719385 0.0187075 0 -0.00758282 0.0171264 0 0.00759938 0.0171387 0 -0.00597213
0.0178373 0 0.00598764 0.0178488 0 -0.00451419 0.0182994 0 0.0045263 0.0183083
0 -0.005 -0.0181922 0 0.005 -0.0181922 0 -0.018893 -0.00073496 0
-0.018893 0.0011094 0 0.0189314 -0.000704684 0 0.0189314 0.0011396 0 -0.0154877
0.0110905 0 -0.018893 -0.0027193 0 -0.018893 0.00282365 0 -0.0171658 0.00840275
0 0.0189314 -0.00268894 0 0.0155453 0.0111349 0 0.0189314 0.00285377 0
-0.00344538 -0.0188361 0 0.00344538 -0.0188361 0 -0.0171658 -0.00852385 0 0.0172162
0.00844179 0 0.0172162 -0.00848386 0 -0.00758282 0.0177113 0 0.00759938 0.0177235
0 -0.0122727 -0.0149021 0 0.0123323 -0.0148546 0 -0.00175719 -0.0192397 0
[...]
CELL_DATA 15677
FIELD attributes 1
U 3 15677 float
-0.302908 10.2689 0 0.188221 10.9195 0 -0.100553 9.47134 0 0.0315137 10.9901
0 0.115948 10.7375 0 -0.0141281 8.8411 0 0.0448335 11.0075 0
0.0118769 10.9826 0 0.0521858 10.5063 0 0.00726476 8.4268 0 0.0459772
11.0122 0 0.041021 11.0316 0 0.0200381 10.9374 0 0.023303 10.2937
0 0.00644788 8.20063 0 0.0432849 11.0135 0 0.0398204 11.0446 0
0.0363552 11.023 0 0.0218611 10.8857 0 0.010415 10.1301 0 0.00207329
8.10766 0 0.0405906 11.0135 0 0.0379143 11.0477 0 0.0335105 11.0454
0 0.0274344 11.009 0 0.016179 10.837 0 0.00380874 10.0273 0
-0.00128574 8.09447 0 0.0377877 11.013 0 0.0364459 11.0469 0 0.0330562
11.0527 0 0.0263245 11.043 0 0.0175407 10.9939 0 0.008534 10.7965
0 -7.55379e-05 9.98403 0 -0.00353979 8.12699 0 0.0347301 11.0122 0
0.0348647 11.0445 0 0.0326043 11.0551 0 0.0265475 11.0549 0 0.0178214
11.0385 0 0.00901414 10.979 0 0.00184454 10.7696 0 -0.00265951 9.98345
0 -0.00517109 8.19019 0 0.031447 11.0111 0 0.0330067 11.0415 0
0.0318149 11.055 0 0.0263917 11.0594 0 0.018182 11.0546 0 0.00975726
11.0322 0 0.00240012 10.9669 0 -0.00317064 10.7569 0 -0.00473152 10.0091
0 -0.00642537 8.27535 0 0.0279992 11.0099 0 0.0309117 11.0382 0
0.0307312 11.0532 0 0.0259928 11.0605 0 0.0182172 11.0611 0 0.0100948
11.0522 0 0.0030305 11.0265 0 -0.00257104 10.9594 0 -0.00687286 10.7552
0 -0.00661338 10.0512 0 -0.00777652 8.37853 0 0.0244466 11.0086 0
0.0286435 11.0345 0 0.0293929 11.0504 0 0.0254373 11.0596 0 0.0180851
11.0633 0 0.0102069 11.0606 0 0.00325705 11.0498 0 -0.00230926 11.0232
0 -0.00645994 10.957 0 -0.00981081 10.7618 0 -0.00843544 10.1045 0
-0.00920273 8.49945 0 0.0208701 11.0074 0 0.0262363 11.0305 0 0.0278194
11.0468 0 0.0246996 11.0575 0 0.0178547 11.0632 0 0.0101918 11.0638
0 0.00328682 11.0601 0 -0.00231828 11.0492 0 -0.00665659 11.0235 0
-0.00982623 10.96 0 -0.0125138 10.7757 0 -0.0102728 10.1667 0 -0.0111811
8.63588 0 0.0173515 11.0062 0 0.0237201 11.0265 0 0.0260183 11.0426
0 0.0237663 11.0543 0 0.0174997 11.0615 0 0.0100511 11.0644 0
0.00315536 11.0644 0 -0.00256327 11.0613 0 -0.00706875 11.0519 0 -0.0105535
11.0286 0 -0.0130983 10.9692 0 -0.0152393 10.7958 0 -0.0124893 10.2359
0 -0.0125763 8.79912 0 0.0141675 11.0052 0 0.0211366 11.0226 0
0.0240259 11.0379 0 0.0226399 11.0502 0 0.017019 11.0587 0 0.00981778
11.0632 0 0.00284843 11.0657 0 -0.00304424 11.067 0 -0.00779477 11.0659
0 -0.0115597 11.0592 0 -0.0144649 11.0394 0 -0.0165021 10.9845 0
-0.0183235 10.8234 0 -0.0144619 10.3109 0 -0.0129846 8.96251 0 0.0116517
11.0042 0 0.0188499 11.0191 0 0.0219011 11.0331 0 0.0213328 11.0453
0 0.0164123 11.0548 0 0.00947874 11.0607 0 0.00241681 11.065 0
-0.00376343 11.0691 0 -0.00884752 11.0729 0 -0.0129759 11.0749 0 -0.0162486
11.0721 0 -0.0186726 11.0567 0 -0.0202835 11.0073 0 -0.0210897 10.8551
0 -0.0157057 10.391 0 -0.0131932 9.12962 0 0.00956733 11.0034 0
0.0168088 11.016 0 0.0199602 11.0285 0 0.0198885 11.0399 0 0.0156901
11.0499 0 0.00904465 11.057 0 0.00184536 11.0628 0 -0.00471249 11.0689
0 -0.0102454 11.076 0 -0.0148328 11.0834 0 -0.0185649 11.0897 0
-0.021414 11.0916 0 -0.0233728 11.0813 0 -0.023895 11.0362 0 -0.0232866
10.8948 0 -0.0167772 10.4751 0 -0.0127527 9.29266 0 0.0078864 11.0027
0 0.0149888 11.0132 0 0.0182533 11.0245 0 0.0185269 11.0347 0
0.0148765 11.0442 0 0.00852412 11.0522 0 0.00114108 11.0592 0 -0.00590161
11.067 0 -0.0120096 11.0765 0 -0.0171698 11.0876 0 -0.021462 11.0995
0 -0.0248376 11.1109 0 -0.0272294 11.1184 0 -0.0281101 11.1131 0
-0.0272279 11.0736 0 -0.0253869 10.9437 0 -0.0173258 10.5637 0 -0.0116261
9.44264 0 0.00656269 11.0021 0 0.0133581 11.0109 0 0.0167404 11.0211
0 0.0173305 11.0301 0 0.0141055 11.0385 0 0.00793543 11.0464 0
0.000308328 11.0544 0 -0.00733593 11.0636 0 -0.014164 11.0751 0 -0.0200299
11.0889 0 -0.0249951 11.1048 0 -0.0290091 11.1221 0 -0.0319618 11.1394
0 -0.0333189 11.1528 0 -0.032866 11.1536 0 -0.0307638 11.1205 0
-0.0271704 11.0024 0 -0.0174528 10.6582 0 -0.0103728 9.57858 0 0.00545905
11.0017 0 0.0118598 11.009 0 0.0153875 11.0181 0 0.0162901 11.026
0 0.0134461 11.0335 0 0.0073724 11.0405 0 -0.000639476 11.0485 0
-0.00901817 11.0589 0 -0.0167304 11.072 0 -0.0234578 11.088 0 -0.0292255
11.1069 0 -0.0339966 11.1284 0 -0.0376419 11.1518 0 -0.0396391 11.1756
0 -0.039711 11.196 0 -0.0380669 11.2038 0 -0.0343739 11.178 0
-0.0288695 11.0734 0 -0.0177875 10.7596 0 -0.00947644 9.70542 0 0.00455681
11.0013 0 0.0105407 11.0075 0 0.0141823 11.0156 0 0.0153972 11.0224
0 0.0128855 11.0288 0 0.00690478 11.0351 0 -0.00157678 11.0424 0
-0.0109396 11.0529 0 -0.0197228 11.0673 0 -0.0274944 11.0852 0 -0.0342184
11.1066 0 -0.0398776 11.1312 0 -0.0443498 11.1589 0 -0.0471432 11.1892
0 -0.0479225 11.2205 0 -0.0468125 11.2488 0 -0.0436523 11.2642 0
-0.0382462 11.2474 0 -0.0309811 11.1578 0 -0.0187018 10.8684 0 -0.00916916
9.82883 0 0.00384307 11.0011 0 0.00935968 11.0063 0 0.0131345 11.0135
0 0.0146596 11.0193 0 0.0124406 11.0247 0 0.00653578 11.0301 0
-0.00240477 11.0367 0 -0.0128741 11.0465 0 -0.0231365 11.0611 0 -0.0321666
11.0806 0 -0.0400331 11.104 0 -0.0467369 11.1312 0 -0.0521798 11.1622
0 -0.0559202 11.197 0 -0.0575856 11.2351 0 -0.0571996 11.2749 0
-0.0546208 11.3116 0 -0.0498168 11.3359 0 -0.0427674 11.3296 0 -0.0337603
11.2552 0 -0.0201616 10.9848 0 -0.00937812 9.95298 0 0.00329689 11.0009
0 0.00834197 11.0053 0 0.0121786 11.0118 0 0.0140747 11.0167 0
0.0121283 11.021 0 0.00628882 11.0254 0 -0.00311728 11.0312 0 -0.0146433
11.0404 0 -0.0265835 11.0544 0 -0.0374719 11.0742 0 -0.0467085 11.0993
0 -0.0546501 11.1287 0 -0.0612354 11.1625 0 -0.0660838 11.2006 0
-0.0688077 11.2434 0 -0.0693339 11.2903 0 -0.0675113 11.3391 0 -0.0633154
11.3851 0 -0.0568836 11.4192 0 -0.0480966 11.4243 0 -0.0372254 11.3642
0 -0.0220635 11.1087 0 -0.00992479 10.0807 0 0.00287525 11.0008 0
0.00750599 11.0046 0 0.0113807 11.0104 0 0.0136548 11.0145 0 0.0119576
11.0177 0 0.00618984 11.0212 0 -0.00368386 11.0261 0 -0.0162542 11.0345
0 -0.0297624 11.0478 0 -0.0428129 11.0669 0 -0.0542405 11.0925 0
-0.0636657 11.1238 0 -0.0716088 11.1598 0 -0.0777592 11.2008 0 -0.0817252
11.2472 0 -0.0833554 11.2989 0 -0.0824705 11.3551 0 -0.0790219 11.4135
0 -0.0731608 11.4694 0 -0.064934 11.5139 0 -0.0541755 11.5306 0
-0.0413214 11.4835 0 -0.0243582 11.2403 0 -0.0111979 10.2137 0 0.00254492
11.0007 0 0.00682169 11.004 0 0.0107309 11.0093 0 0.0133679 11.0126
0 0.0119412 11.0149 0 0.00625435 11.0173 0 -0.00407355 11.0212 0
-0.0176674 11.0287 0 -0.0327045 11.0412 0 -0.047737 11.0595 0 -0.0617847
11.0843 0 -0.0737739 11.1162 0 -0.0833564 11.1543 0 -0.0910555 11.1978
0 -0.0964899 11.2471 0 -0.0994349 11.3025 0 -0.0996817 11.3638 0
-0.0971465 11.4299 0 -0.0919486 11.4984 0 -0.0841919 11.5644 0 -0.0738563
11.6193 0 -0.0609025 11.6473 0 -0.0459493 11.6121 0 -0.0271238 11.379
0 -0.0131663 10.3573 0 0.0022829 11.0006 0 0.00626141 11.0036 0
0.0102058 11.0083 0 0.0132105 11.0111 0 0.0120444 11.0126 0 0.0065104
11.0139 0 -0.00426188 11.0167 0 -0.0188477 11.0231 0 -0.0353611 11.0346
0 -0.0523069 11.052 0 -0.0687173 11.0759 0 -0.0838436 11.1069 0
-0.0964586 11.1457 0 -0.106037 11.1914 0 -0.113234 11.2434 0 -0.117761
11.3019 0 -0.119366 11.367 0 -0.117933 11.4384 0 -0.113537 11.5149
0 -0.106295 11.5935 0 -0.0962678 11.6696 0 -0.0835208 11.7348 0
-0.0681823 11.7734 0 -0.0512566 11.7488 0 -0.030574 11.5244 0 -0.0152634
10.5141 0 0.00207315 11.0005 0 0.00580233 11.0032 0 0.00978193 11.0075
0 0.0131283 11.0099 0 0.0122292 11.0107 0 0.00693289 11.0111 0
-0.00423102 11.0126 0 -0.0197658 11.0178 0 -0.0376922 11.0281 0 -0.0564627
11.0443 0 -0.0751387 11.067 0 -0.0930606 11.0969 0 -0.109451 11.1348
0 -0.122674 11.1813 0 -0.132033 11.2358 0 -0.138495 11.2972 0
-0.14176 11.3657 0 -0.141662 11.4412 0 -0.138246 11.5231 0 -0.131625
11.6098 0 -0.121902 11.6985 0 -0.109228 11.7845 0 -0.0938131 11.8595
0 -0.0760597 11.9078 0 -0.0572127 11.8918 0 -0.0342992 11.6747 0
-0.0170501 10.6798 0 0.00190349 11.0004 0 0.00542553 11.0029 0 0.00943964
11.0068 0 0.0130919 11.0089 0 0.0124656 11.0092 0 0.00742322 11.0088
0 -0.0039911 11.0091 0 -0.0204031 11.0128 0 -0.0396653 11.0218 0
-0.0601567 11.0366 0 -0.080973 11.0578 0 -0.101568 11.0863 0 -0.121303
11.1229 0 -0.139109 11.1683 0 -0.152842 11.2237 0 -0.161727 11.288
0 -0.167061 11.3597 0 -0.168625 11.4388 0 -0.166422 11.5251 0
-0.160577 11.6175 0 -0.15123 11.7144 0 -0.138582 11.8129 0 -0.122926
11.9083 0 -0.104716 11.9922 0 -0.0844414 12.0489 0 -0.0631853 12.0395
0 -0.037563 11.8289 0 -0.0182057 10.8492 0 0.00176517 11.0004 0
0.00511531 11.0026 0 0.00916287 11.0062 0 0.0130895 11.008 0 0.0127277
11.0079 0 0.00793593 11.007 0 -0.00361906 11.0064 0 -0.0207388 11.0086
0 -0.0412554 11.0158 0 -0.0633498 11.0289 0 -0.0861597 11.0485 0
-0.10927 11.0752 0 -0.132206 11.11 0 -0.154059 11.154 0 -0.173346
11.2082 0 -0.187403 11.2735 0 -0.195386 11.3486 0 -0.199074 11.4314
0 -0.198429 11.5216 0 -0.19358 11.6187 0 -0.184729 11.7215 0
-0.172132 11.8283 0 -0.156144 11.936 0 -0.137276 12.0401 0 -0.116087
12.1319 0 -0.0928397 12.1951 0 -0.0686841 12.1907 0 -0.0401497 11.9867
0 -0.0187208 11.0177 0 0.00165138 11.0004 0 0.00485877 11.0024 0
0.00893834 11.0057 0 0.0130978 11.0072 0 0.013006 11.0068 0 0.00844089
11.0055 0 -0.00317703 11.0043 0 -0.0208218 11.0052 0 -0.0423955 11.0105
0 -0.0660066 11.0215 0 -0.0906467 11.0391 0 -0.116085 11.0637 0
-0.142037 11.0963 0 -0.167777 11.1383 0 -0.191965 11.1909 0 -0.212676
11.255 0 -0.226678 11.3314 0 -0.233165 11.418 0 -0.234588 11.5125
0 -0.231088 11.6141 0 -0.222923 11.7219 0 -0.210451 11.8348 0
-0.1941 11.9509 0 -0.174431 12.0672 0 -0.152081 12.1787 0 -0.127464
12.277 0 -0.100848 12.3455 0 -0.0737035 12.3451 0 -0.0422616 12.1475
0 -0.0195572 11.1824 0 0.00155686 11.0003 0 0.00464558 11.0022 0
0.00875573 11.0052 0 0.0131193 11.0065 0 0.0132864 11.0059 0 0.00890445
11.0043 0 -0.00270895 11.0026 0 -0.0207287 11.0026 0 -0.0431033 11.0062
0 -0.0680064 11.0148 0 -0.0943833 11.0298 0 -0.121941 11.052 0
-0.150688 11.0821 0 -0.180108 11.1216 0 -0.209027 11.1718 0 -0.235619
11.2341 0 -0.257485 11.3092 0 -0.27085 11.3977 0 -0.275107 11.4967
0 -0.273497 11.6031 0 -0.266362 11.716 0 -0.254162 11.8343 0
-0.237458 11.9568 0 -0.216899 12.0814 0 -0.193191 12.2052 0 -0.166891
12.3231 0 -0.138447 12.4268 0 -0.10839 12.4993 0 -0.0783626 12.5024
0 -0.04496 12.3093 0 -0.0201374 11.3748 0 0.00147768 11.0003 0
0.00446747 11.0021 0 0.00860602 11.0048 0 0.0131498 11.006 0 0.0135503
11.0052 0 0.00933005 11.0033 0 -0.00224558 11.0013 0 -0.0205213 11.0006
0 -0.0434746 11.0028 0 -0.0693427 11.0092 0 -0.0971953 11.0212 0
-0.126768 11.0402 0 -0.158061 11.0674 0 -0.190911 11.1039 0 -0.22434
11.1513 0 -0.256645 11.2111 0 -0.285478 11.2843 0 -0.308001 11.3715
0 -0.319963 11.4729 0 -0.321085 11.5847 0 -0.315532 11.7032 0
-0.303917 11.8271 0 -0.286954 11.9554 0 -0.265447 12.0867 0 -0.24022
12.219 0 -0.211981 12.3491 0 -0.181318 12.4723 0 -0.148944 12.5801
0 -0.115507 12.6559 0 -0.0832733 12.6612 0 -0.0471076 12.4906 0
-0.0197448 11.5657 0 0.00141092 11.0003 0 0.0043177 11.0019 0 0.00848192
11.0045 0 0.0131833 11.0055 0 0.013792 11.0046 0 0.00971481 11.0026
0 -0.00180188 11.0003 0 -0.0202442 10.999 0 -0.0435962 11.0001 0
-0.0701428 11.0046 0 -0.0990679 11.0138 0 -0.130339 11.0291 0 -0.16406
11.0525 0 -0.200058 11.0856 0 -0.237726 11.1295 0 -0.275521 11.186
0 -0.311169 11.2566 0 -0.341822 11.3421 0 -0.364281 11.4423 0
-0.373877 11.5572 0 -0.370805 11.6821 0 -0.360315 11.8125 0 -0.343351
11.9471 0 -0.320917 12.0846 0 -0.29404 12.2238 0 -0.263615 12.3625
0 -0.230408 12.4979 0 -0.195241 12.6253 0 -0.158979 12.7364 0
-0.122596 12.8138 0 -0.0877676 12.8387 0 -0.0481121 12.6893 0 -0.0196356
11.75 0 0.00135404 11.0003 0 0.00419065 11.0018 0 0.00837764 11.0042
0 0.013216 11.0051 0 0.0140097 11.0041 0 0.0100572 11.002 0
-0.00138747 10.9995 0 -0.0199281 10.9978 0 -0.0435366 10.9979 0 -0.0705296
11.0008 0 -0.100177 11.0075 0 -0.13265 11.0193 0 -0.168406 11.0382
0 -0.207422 11.0667 0 -0.249021 11.1067 0 -0.292028 11.1594 0
-0.334281 11.2265 0 -0.372948 11.3092 0 -0.404745 11.4078 0 -0.426192
11.5219 0 -0.432276 11.6507 0 -0.42384 11.7887 0 -0.407378 11.9306
0 -0.384203 12.0751 0 -0.355606 12.221 0 -0.322763 12.367 0
-0.286667 12.5111 0 -0.248292 12.6507 0 -0.208619 12.7813 0 -0.168771
12.8939 0 -0.129692 12.9902 0 -0.0914699 13.0346 0 -0.0496103 12.8849
0 -0.0197505 11.9266 0 0.00130563 11.0002 0 0.00408201 11.0017 0
0.00828858 11.004 0 0.013247 11.0048 0 0.0142038 11.0037 0 0.0103595
11.0015 0 -0.00100597 10.999 0 -0.0195933 10.9968 0 -0.0433488 10.9962
0 -0.0706047 10.9976 0 -0.100692 11.0021 0 -0.133942 11.0107 0
-0.171119 11.0253 0 -0.212665 11.0484 0 -0.258064 11.083 0 -0.305958
11.1313 0 -0.354543 11.1942 0 -0.401045 11.2733 0 -0.442122 11.3693
0 -0.474133 11.4821 0 -0.493406 11.6105 0 -0.494688 11.7534 0
-0.479654 11.9043 0 -0.456177 12.057 0 -0.425951 12.2106 0 -0.390504
12.3637 0 -0.351167 12.5154 0 -0.30913 12.6638 0 -0.265522 12.8065
0 -0.221522 12.9386 0 -0.178824 13.0699 0 -0.136219 13.1847 0
-0.0952339 13.2282 0 -0.0512359 13.0745 0 -0.0199234 12.095 0 0.00399021
11.0017 0 0.00124685 11.0002 0 0.00821093 11.0038 0 0.0132745 11.0045
0 0.0143742 11.0034 0 0.0106269 11.0012 0 -0.000657174 10.9985 0
-0.0192534 10.9961 0 -0.0430729 10.9948 0 -0.0704503 10.995 0 -0.100758
10.9975 0 -0.134447 11.0032 0 -0.172523 11.0138 0 -0.215839 11.0316
0 -0.264443 11.0599 0 -0.317111 11.102 0 -0.371701 11.16 0
-0.425787 11.2346 0 -0.47602 11.327 0 -0.518618 11.4374 0 -0.549665
11.5652 0 -0.565422 11.7083 0 -0.56051 11.8651 0 -0.537618 12.0282
0 -0.506105 12.191 0 -0.468019 12.3525 0 -0.425113 12.5118 0
-0.378932 12.6679 0 -0.330817 12.8195 0 -0.282059 12.9638 0 -0.234931
13.1145 0 -0.188524 13.2637 0 -0.142286 13.3767 0 -0.0987593 13.4169
0 -0.0526907 13.2566 0 -0.0200996 12.2551 0 0.0081466 11.0037 0
0.00387311 11.0016 0 0.0011749 11.0002 0 0.0132971 11.0043 0 0.014522
11.0032 0 0.0108622 11.001 0 -0.000342393 10.9983 0 -0.0189174 10.9956
0 -0.0427391 10.9937 0 -0.0701317 10.9928 0 -0.100492 10.9935 0
-0.134359 10.9966 0 -0.172925 11.0036 0 -0.217367 11.0166 0 -0.26824
11.0386 0 -0.324977 11.0732 0 -0.385503 11.1242 0 -0.446863 11.1936
0 -0.506048 11.2813 0 -0.559189 11.3883 0 -0.60214 11.5141 0
-0.630829 11.6572 0 -0.641587 11.8151 0 -0.629032 11.9855 0 -0.597034
12.16 0 -0.556511 12.3318 0 -0.509842 12.5 0 -0.459031 12.6642
0 -0.40579 12.8237 0 -0.351598 12.9769 0 -0.299347 13.1398 0
-0.248206 13.3082 0 -0.197343 13.455 0 -0.147807 13.5639 0 -0.101806
13.599 0 -0.0539253 13.4308 0 -0.0202269 12.4071 0 0.0133188 11.0042
0 0.00804811 11.0035 0 0.00371255 11.0015 0 0.00110617 11.0002 3.69192e-19
0.0146481 11.0031 0 0.011069 11.0008 0 -5.85937e-05 10.9981 0 -0.0185918
10.9953 0 -0.0423703 10.9929 0 -0.0697 10.991 0 -0.0999884 10.9902
0 -0.133836 10.9909 0 -0.172577 10.9946 0 -0.217642 11.0032 0
-0.269991 11.0194 0 -0.329658 11.0465 0 -0.395313 11.0888 0 -0.463959
11.1504 0 -0.531825 11.2326 0 -0.595381 11.335 0 -0.6503 11.4577
0 -0.692184 11.5995 0 -0.716941 11.7583 0 -0.721119 11.9307 0
-0.699457 12.1139 0 -0.657155 12.2988 0 -0.606747 12.4784 0 -0.550927
12.6521 0 -0.491904 12.82 0 -0.431526 12.9812 0 -0.373393 13.1532
0 -0.316715 13.3338 0 -0.260185 13.4993 0 -0.205293 13.6415 0
-0.1526 13.7447 0 -0.104385 13.7736 0 -0.0549432 13.5965 0 -0.0203083
12.5503 0 0.0147552 11.003 0 0.0133254 11.0041 0 0.00788486 11.0033
1.61601e-18 0.00355851 11.0014 -1.16814e-18 0.00103981 11.0002 -7.49311e-19 0.011249 11.0008 0
0.000197923 10.9981 0 -0.0182795 10.9951 0 -0.0419835 10.9922 0 -0.0691946
10.9895 0 -0.0993208 10.9873 0 -0.133004 10.986 0 -0.171685 10.9868
0 -0.216986 10.9913 0 -0.270189 11.0021 0 -0.331814 11.0223 0
-0.401232 11.0559 0 -0.476273 11.1075 0 -0.552964 11.1813 0 -0.626734
11.278 0 -0.693601 11.3963 0 -0.748884 11.5356 0 -0.788058 11.694
0 -0.807168 11.8683 0 -0.803135 12.0547 0 -0.770938 12.2498 0
-0.717236 12.4438 0 -0.656215 12.6298 0 -0.590827 12.8078 0 -0.523433
12.9778 0 -0.458581 13.1579 0 -0.395481 13.3476 0 -0.33235 13.5251
0 -0.2709 13.6857 0 -0.212211 13.8216 0 -0.156658 13.9182 0
-0.106518 13.9401 0 -0.0557529 13.7534 0 -0.0203287 12.6853 0 0.0113876
11.0008 0 0.0149002 11.003 -3.30303e-18 0.0132703 11.004 -1.70463e-18 0.00772555 11.0031
8.20394e-19 0.00340677 11.0013 -7.89965e-19 0.000975575 11.0002 0 0.000427427 10.9981 0
-0.0179805 10.995 0 -0.0415901 10.9917 0 -0.0686456 10.9883 0 -0.0985471
10.9848 0 -0.131963 10.9817 0 -0.170411 10.9798 0 -0.21566 10.9807
0 -0.269238 10.9866 0 -0.332055 11.0005 0 -0.404059 11.026 0
-0.48388 11.0675 0 -0.568447 11.1299 0 -0.652767 11.2176 0 -0.73149
11.3304 0 -0.800293 11.4658 0 -0.854261 11.6224 0 -0.8889 11.7975
0 -0.900557 11.9871 0 -0.886685 12.1866 0 -0.842612 12.3923 0
-0.776564 12.5941 0 -0.704362 12.7852 0 -0.629149 12.9657 0 -0.55664
13.1549 0 -0.486146 13.3529 0 -0.415371 13.5394 0 -0.346275 13.7118
0 -0.280223 13.8659 0 -0.218081 13.9946 0 -0.160021 14.0838 0
-0.108244 14.0981 0 -0.056386 13.9014 0 -0.0203021 12.8116 0 0.000586283
10.9982 0 0.0116605 11.001 7.08556e-18 0.0150719 11.0031 0 0.0132089 11.0039
1.72923e-18 0.00755737 11.0029 5.03887e-22 0.0032556 11.0012 0 0.000913161 11.0002 0
-0.0176977 10.995 0 -0.0411954 10.9914 0 -0.0680741 10.9873 0 -0.0977116
10.9827 0 -0.130791 10.9779 0 -0.168885 10.9737 0 -0.213869 10.9714
0 -0.267461 10.9729 0 -0.330878 10.9809 0 -0.404532 10.9988 0
-0.487725 11.0309 0 -0.578293 11.082 0 -0.672201 11.157 0 -0.763378
11.2602 0 -0.845759 11.3904 0 -0.914821 11.5439 0 -0.965567 11.7183
0 -0.99371 11.91 0 -0.996073 12.1142 0 -0.970788 12.3258 0
-0.913634 12.5407 0 -0.834476 12.7488 0 -0.750698 12.9431 0 -0.669591
13.1433 0 -0.590599 13.3506 0 -0.510997 13.5455 0 -0.433048 13.7267
0 -0.358401 13.8923 0 -0.28815 14.0389 0 -0.222966 14.1598 0
-0.16274 14.2411 0 -0.109589 14.2473 0 -0.0568423 14.0405 0 -0.0202335
12.9299 0 -0.0175079 10.995 0 0.00104083 10.9985 5.17425e-22 0.0120899 11.0013
0 0.0152191 11.0033 -1.83219e-18 0.0131234 11.004 4.48474e-22 0.00737585 11.0028 0
0.00310397 11.0012 0 0.000852389 11.0001 0 -0.0408064 10.9911 0 -0.0674918
10.9865 0 -0.0968462 10.9809 0 -0.129547 10.9747 0 -0.167204 10.9684
0 -0.211774 10.9631 0 -0.265115 10.9606 0 -0.32868 10.9633 0
-0.403253 10.9744 0 -0.48869 10.9977 0 -0.583596 11.0379 0 -0.684945
11.1001 0 -0.787661 11.1895 0 -0.884566 11.3099 0 -0.968974 11.4588
0 -1.03634 11.6311 0 -1.08178 11.8235 0 -1.10138 12.0313 0
-1.09263 12.2492 0 -1.05447 12.4714 0 -0.983211 12.6941 0 -0.890362
12.9065 0 -0.799722 13.1211 0 -0.71107 13.3399 0 -0.62126 13.5441
0 -0.533064 13.7336 0 -0.448448 13.908 0 -0.368736 14.0658 0
-0.294761 14.2042 0 -0.226939 14.3168 0 -0.164868 14.3898 0 -0.110594
14.3878 0 -0.0571679 14.1708 0 -0.0201232 13.04 0 -0.040531 10.991
0 -0.0168493 10.9952 -4.07308e-18 0.001894 10.999 0 0.0124702 11.0018 0
0.0153388 11.0036 5.57109e-18 0.0130028 11.0041 0 0.00718001 11.0027 0 0.00295077
11.0011 1.64645e-18 0.000793147 11.0001 0 -0.0669088 10.9858 0 -0.095969 10.9794
0 -0.128273 10.9718 0 -0.165445 10.9636 0 -0.2095 10.9558 0
-0.262401 10.9497 0 -0.325779 10.9477 0 -0.400711 10.9525 0 -0.487498
10.9677 0 -0.585395 10.9978 0 -0.692249 11.0477 0 -0.804083 11.1229
0 -0.91472 11.2283 0 -1.01586 11.3674 0 -1.10035 11.5361 0
-1.16384 11.7277 0 -1.20173 11.9378 0 -1.21074 12.1611 0 -1.18914
12.3914 0 -1.13679 12.6228 0 -1.05059 12.8512 0 -0.949683 13.0848
0 -0.850158 13.3186 0 -0.748591 13.5345 0 -0.648493 13.7333 0
-0.5523 13.9158 0 -0.461598 14.0822 0 -0.377376 14.2316 0 -0.300151
14.3613 0 -0.230079 14.4652 0 -0.166469 14.5298 0 -0.111294 14.5195
0 -0.0573571 14.2926 0 -0.0199996 13.1427 0 -0.0664608 10.9853 0
-0.0396106 10.991 0 -0.0155038 10.9958 -4.43685e-18 0.00266643 10.9997 -4.20453e-18 0.0128227
11.0024 -7.94265e-18 0.0154183 11.0041 0 0.0128445 11.0042 -3.60296e-18 0.00696555 11.0027
-3.4653e-18 0.00279487 11.001 1.66744e-18 0.000735187 11.0001 0 -0.095092 10.9781 0
-0.126995 10.9694 0 -0.163664 10.9595 0 -0.207141 10.9493 0 -0.259471
10.9401 0 -0.322421 10.9338 0 -0.39729 10.9329 0 -0.484738 10.9408
0 -0.584549 10.9615 0 -0.695319 10.9999 0 -0.814047 11.0613 0
-0.935731 11.1511 0 -1.05303 11.2744 0 -1.15657 11.4335 0 -1.23889