#           x             T
    -0.118946       349.617
    -0.118121       349.614
    -0.117174       349.613
    -0.116087       349.613
    -0.114839       349.613
    -0.113407       349.611
    -0.111763        349.61
    -0.109877       349.608
    -0.107712       349.606
    -0.105226       349.604
    -0.102373       349.601
   -0.0990994       349.599
   -0.0953416       349.599
   -0.0914285       349.604
    -0.087619        349.62
   -0.0838095        349.66
        -0.08       349.742
   -0.0761904       349.906
   -0.0723809       350.222
   -0.0685714       350.815
   -0.0649271        351.84
    -0.061624       353.429
   -0.0586549       355.672
   -0.0559862       358.571
   -0.0535874       362.023
   -0.0514312       365.831
   -0.0494932       369.769
   -0.0477512       373.609
   -0.0461853       377.142
   -0.0447779       380.215
   -0.0435128        382.74
   -0.0423757       384.706
   -0.0413536       386.158
   -0.0404349       387.229
     -0.03925       388.078
     -0.03775         388.5
     -0.03625       388.372
     -0.03475       387.814
     -0.03325       386.973
     -0.03175       385.979
     -0.03025       384.922
     -0.02875       383.845
     -0.02725       382.765
     -0.02575       381.706
   -0.0243993       380.731
   -0.0231362       379.827
    -0.021743       378.872
   -0.0202065       377.812
   -0.0185118       376.676
   -0.0171075        375.78
   -0.0161272       375.181
   -0.0145812       374.299
    -0.012414       373.153
   -0.0103452       372.195
  -0.00847254       371.459
  -0.00711441       371.004
  -0.00630907       370.763
  -0.00524316       370.484
  -0.00385435       370.193
  -0.00259726       370.008
  -0.00133333       369.896
            0       369.854
   0.00133333       369.897
   0.00260066       370.016
   0.00386381        370.21
   0.00525697        370.51
   0.00631696       370.793
   0.00712283       371.039
    0.0084882       371.505
    0.0103573       372.252
    0.0124188        373.22
    0.0145859       374.378
    0.0161321       375.266
     0.017115       375.871
    0.0185274       376.778
    0.0202225       377.919
    0.0217568       378.978
    0.0231456       379.926
    0.0244027        380.82
      0.02575       381.783
      0.02725        382.83
      0.02875       383.897
      0.03025       384.958
      0.03175       385.999
      0.03325       386.984
      0.03475       387.825
      0.03625       388.387
      0.03775       388.524
      0.03925       388.112
    0.0404349       387.271
    0.0413536       386.208
    0.0423757       384.761
    0.0435128         382.8
    0.0447779       380.276
    0.0461853       377.202
    0.0477511       373.663
    0.0494932       369.815
    0.0514312       365.867
    0.0535874       362.049
    0.0559862       358.587
    0.0586549        355.68
     0.061624       353.434
    0.0649271       351.842
    0.0685714       350.815
    0.0723809       350.222
    0.0761904       349.906
         0.08       349.742
    0.0838095        349.66
     0.087619       349.621
    0.0914285       349.604
    0.0953419       349.599
    0.0991002       349.599
     0.102374       349.601
     0.105227       349.604
     0.107713       349.606
     0.109878       349.608
     0.111765        349.61
     0.113408       349.611
      0.11484       349.613
     0.116088       349.613
     0.117175       349.613
     0.118122       349.614
     0.118947       349.617
     0.119665       349.622
