#           x             T
    -0.118946       349.689
    -0.118121        349.68
    -0.117174       349.676
    -0.116087       349.673
    -0.114839       349.672
    -0.113407        349.67
    -0.111763       349.669
    -0.109877       349.667
    -0.107712       349.667
    -0.105226       349.666
    -0.102373       349.666
   -0.0990994       349.668
   -0.0953416       349.673
   -0.0914285       349.686
    -0.087619       349.714
   -0.0838095       349.768
        -0.08       349.874
   -0.0761904       350.076
   -0.0723809       350.458
   -0.0685714       351.169
   -0.0649271       352.392
    -0.061624        354.28
   -0.0586549       356.928
   -0.0559862       360.325
   -0.0535874       364.325
   -0.0514312       368.687
   -0.0494932       373.134
   -0.0477512       377.396
   -0.0461853       381.253
   -0.0447779       384.561
   -0.0435128       387.267
   -0.0423757       389.388
   -0.0413536        390.99
   -0.0404349       392.225
     -0.03925       393.296
     -0.03775       394.012
     -0.03625       394.229
     -0.03475       394.093
     -0.03325        393.78
     -0.03175       393.402
     -0.03025       393.017
     -0.02875        392.65
     -0.02725       392.308
     -0.02575       391.996
   -0.0243993       391.728
   -0.0231362       391.494
    -0.021743       391.256
   -0.0202065       390.996
   -0.0185118       390.726
   -0.0171075       390.517
   -0.0161272        390.38
   -0.0145812       390.179
    -0.012414       389.919
   -0.0103452       389.698
  -0.00847254       389.525
  -0.00711441       389.416
  -0.00630907       389.358
  -0.00524316       389.288
  -0.00385435       389.213
  -0.00259726        389.16
  -0.00133333       389.121
            0       389.093
   0.00133333       389.081
   0.00260066       389.081
   0.00386381       389.093
   0.00525697       389.119
   0.00631696       389.146
   0.00712283        389.17
    0.0084882       389.217
    0.0103573       389.294
    0.0124188       389.394
    0.0145859       389.516
    0.0161321       389.612
     0.017115        389.68
    0.0185274       389.785
    0.0202225        389.93
    0.0217568       390.084
    0.0231456       390.249
    0.0244027       390.429
      0.02575       390.654
      0.02725       390.943
      0.02875       391.292
      0.03025         391.7
      0.03175       392.165
      0.03325        392.67
      0.03475        393.18
      0.03625       393.617
      0.03775       393.849
      0.03925       393.712
    0.0404349        393.18
    0.0413536       392.371
    0.0423757        391.14
    0.0435128        389.33
    0.0447779       386.837
    0.0461853       383.612
    0.0477511       379.697
    0.0494932       375.247
    0.0514312       370.515
    0.0535874       365.813
    0.0559862       361.459
    0.0586549       357.728
     0.061624       354.794
    0.0649271       352.693
    0.0685714       351.331
    0.0723809       350.541
    0.0761904       350.117
         0.08       349.894
    0.0838095       349.778
     0.087619       349.719
    0.0914285       349.689
    0.0953419       349.674
    0.0991002       349.668
     0.102374       349.666
     0.105227       349.666
     0.107713       349.666
     0.109878       349.667
     0.111765       349.668
     0.113408       349.669
      0.11484       349.671
     0.116088       349.673
     0.117175       349.675
     0.118122        349.68
     0.118947       349.689
     0.119665       349.698
