#           x             T
    -0.118947       349.701
    -0.118121       349.698
    -0.117174       349.695
    -0.116087       349.693
     -0.11484        349.69
    -0.113408       349.688
    -0.111764       349.686
    -0.109877       349.685
    -0.107712       349.683
    -0.105227       349.681
    -0.102374        349.68
   -0.0990995       349.679
   -0.0953416       349.679
   -0.0914285       349.682
   -0.0876191       349.692
   -0.0838095       349.715
        -0.08       349.767
   -0.0761904       349.878
   -0.0723809       350.111
   -0.0685715        350.59
   -0.0649271       351.516
    -0.061624       353.135
    -0.058655       355.714
   -0.0559862       359.433
   -0.0535874       364.247
   -0.0514313       369.865
   -0.0494932       375.803
   -0.0477512       381.512
   -0.0461853       386.438
   -0.0447779       390.283
   -0.0435128       393.037
   -0.0423757       394.876
   -0.0413536       396.011
   -0.0404349       396.623
     -0.03925       396.768
     -0.03775       396.197
     -0.03625        395.04
     -0.03475        393.71
     -0.03325        392.49
     -0.03175       391.485
     -0.03025       390.704
     -0.02875       390.122
     -0.02725       389.699
     -0.02575       389.402
   -0.0243994       389.206
   -0.0231362       389.073
    -0.021743       388.972
   -0.0202065       388.897
   -0.0189203       388.849
   -0.0180315       388.821
   -0.0166427       388.782
   -0.0145812       388.733
    -0.012414       388.687
   -0.0110231       388.657
   -0.0100402       388.635
  -0.00847254         388.6
  -0.00677747       388.565
  -0.00524316       388.535
  -0.00385435       388.511
  -0.00288618       388.496
  -0.00228892       388.488
  -0.00133333       388.476
            0       388.463
   0.00133333       388.455
     0.002289       388.452
   0.00288966        388.45
   0.00386381        388.45
   0.00525697       388.453
   0.00679351       388.459
    0.0084882       388.469
    0.0100473       388.484
    0.0110276       388.496
    0.0124188       388.517
    0.0145859       388.562
    0.0166548       388.639
    0.0180384       388.714
    0.0189282       388.776
    0.0202225       388.887
    0.0217568       389.067
    0.0231456       389.289
    0.0244027       389.557
      0.02575       389.922
      0.02725        390.42
      0.02875       391.056
      0.03025       391.844
      0.03175       392.798
      0.03325       393.914
      0.03475       395.126
      0.03625       396.237
      0.03775       396.912
      0.03925       396.895
    0.0404349       396.305
    0.0413536       395.378
    0.0423757       393.971
    0.0435128        391.88
    0.0447779       388.923
    0.0461853       384.978
    0.0477511       380.105
    0.0494932       374.602
    0.0514312       368.935
    0.0535874       363.609
    0.0559862       359.047
    0.0586549       355.511
     0.061624       353.042
    0.0649271       351.481
    0.0685714       350.581
    0.0723809        350.11
    0.0761904       349.881
         0.08       349.771
    0.0838095       349.718
     0.087619       349.694
    0.0914285       349.684
    0.0953419       349.681
    0.0991002       349.681
     0.102374       349.681
     0.105227       349.683
     0.107713       349.684
     0.109878       349.686
     0.111765       349.687
     0.113408       349.689
      0.11484       349.691
     0.116088       349.694
     0.117175       349.697
     0.118122       349.699
     0.118947       349.702
     0.119665       349.705
