#           x             T
    -0.118947       287.334
    -0.118121        287.75
    -0.117174       288.033
    -0.116087        288.17
     -0.11484       288.226
    -0.113408       288.243
    -0.111764       288.236
    -0.109877       288.212
    -0.107712       288.169
    -0.105227       288.106
    -0.102374       288.017
   -0.0990995       287.897
   -0.0953416       287.748
   -0.0914285       287.588
   -0.0876191       287.445
   -0.0838095       287.346
        -0.08       287.337
   -0.0761904       287.516
   -0.0723809        288.12
   -0.0685715       289.592
   -0.0649271        292.17
    -0.061624       295.344
    -0.058655       298.339
   -0.0559862       300.705
   -0.0535874       302.356
   -0.0514313       303.409
   -0.0494932        304.02
   -0.0477512       304.324
   -0.0461853       304.425
   -0.0447779       304.401
   -0.0435128       304.305
   -0.0423757       304.177
   -0.0413536       304.042
   -0.0404349       303.906
     -0.03925       303.732
     -0.03775       303.482
     -0.03625       303.174
     -0.03475       302.824
     -0.03325       302.442
     -0.03175       302.037
     -0.03025       301.616
     -0.02875       301.187
     -0.02725       300.756
     -0.02575       300.343
   -0.0243994       299.963
   -0.0231362        299.61
    -0.021743       299.264
   -0.0202065       298.937
   -0.0189203       298.667
   -0.0180315       298.483
   -0.0166427       298.199
   -0.0145812       297.782
    -0.012414       297.411
   -0.0110231       297.179
   -0.0100402       297.016
  -0.00847254       296.762
  -0.00677747       296.506
  -0.00524316        296.34
  -0.00385435       296.218
  -0.00288618       296.148
  -0.00228892        296.11
  -0.00133333       296.072
            0       296.049
   0.00133333       296.062
     0.002289       296.096
   0.00288966       296.132
   0.00386381         296.2
   0.00525697       296.319
   0.00679351       296.481
    0.0084882       296.732
    0.0100473        296.98
    0.0110276       297.139
    0.0124188       297.368
    0.0145859       297.732
    0.0166548       298.144
    0.0180384       298.422
    0.0189282       298.602
    0.0202225       298.869
    0.0217568       299.188
    0.0231456       299.527
    0.0244027       299.871
      0.02575       300.244
      0.02725       300.649
      0.02875       301.072
      0.03025       301.492
      0.03175       301.904
      0.03325         302.3
      0.03475       302.672
      0.03625       303.011
      0.03775       303.309
      0.03925       303.551
    0.0404349       303.722
    0.0413536       303.855
    0.0423757       303.988
    0.0435128       304.116
    0.0447779       304.211
    0.0461853       304.236
    0.0477511       304.137
    0.0494932       303.839
    0.0514312       303.237
    0.0535874       302.202
    0.0559862       300.578
    0.0586549        298.25
     0.061624       295.299
    0.0649271       292.159
    0.0685714       289.595
    0.0723809       288.121
    0.0761904       287.515
         0.08       287.336
    0.0838095       287.346
     0.087619       287.445
    0.0914285       287.588
    0.0953419       287.749
    0.0991002       287.899
     0.102374        288.02
     0.105227        288.11
     0.107713       288.175
     0.109878       288.219
     0.111765       288.244
     0.113408       288.252
      0.11484       288.237
     0.116088       288.181
     0.117175       288.045
     0.118122       287.761
     0.118947       287.343
     0.119665        287.02
