# vtk DataFile Version 2.0
sampleSurface
ASCII
DATASET POLYDATA
POINTS 15978 float
-4.26165e-19 0.000133477 0 -4.18079e-19 -0.000798814 0 -4.33681e-19 0.001 0 -4.09379e-19 -0.00180187
0 -0.00181681 0.000361473 0 0.00181681 0.000361473 0 -0.00181396 -0.000575145 0
0.00181396 -0.000575145 0 -0.00181945 0.00123202 0 0.00181945 0.00123202 0 -0.00181089
-0.00158285 0 0.00181089 -0.00158285 0 -4.00018e-19 -0.00288105 0 -0.00180759 -0.00266704
0 0.00180759 -0.00266704 0 -0.00351565 8.15481e-05 0 0.00351565 8.15481e-05 0
-0.00351186 -0.000939823 0 0.00351186 -0.000939823 0 -0.00351918 0.00103087 0 0.00351918
0.00103087 0 -0.00352245 0.00191322 0 0.00352245 0.00191322 0 -3.89947e-19 -0.00404214
0 -0.00350777 -0.00203871 0 0.00350777 -0.00203871 0 -0.00180405 -0.00383352 0
0.00180405 -0.00383352 0 -0.00350338 -0.00322101 0 0.00350338 -0.00322101 0 -0.005
8.60602e-05 0 0.005 8.60602e-05 0 -0.005 -0.00103629 0 0.005 -0.00103629
0 -0.005 0.00112923 0 0.005 0.00112923 0 -3.79112e-19 -0.00529135 0
-0.00180023 -0.00508853 0 0.00180023 -0.00508853 0 -0.005 0.00209882 0 0.005
0.00209882 0 -0.005 -0.00224382 0 0.005 -0.00224382 0 -0.00349866 -0.00449304
0 0.00349866 -0.00449304 0 -0.005 0.003 0 0.005 0.003 0
-0.005 -0.003543 0 0.005 -0.003543 0 -0.00637208 2.82617e-05 0 0.00639053
4.25732e-05 0 -0.00637208 0.00114892 0 -0.00637208 -0.00117745 0 0.00639053 -0.00116311
0 0.00639053 0.00116321 0 -3.67455e-19 -0.00663538 0 -0.00179612 -0.00643879 0
0.00179612 -0.00643879 0 -0.00637208 0.00219052 0 0.00639053 0.00220479 0 -0.00349357
-0.00586162 0 0.00349357 -0.00586162 0 -0.00637208 -0.00247467 0 0.00639053 -0.00246031
0 -0.005 -0.00494079 0 0.005 -0.00494079 0 -0.00637208 0.00315864 0
0.00639053 0.00317289 0 -0.00637208 -0.00387036 0 0.00639053 -0.00385597 0 -0.00637208
0.00405846 0 0.00639053 0.00407269 0 -0.00778421 -7.99569e-05 0 0.00781802 -5.3679e-05
0 -0.00778421 0.00112388 0 0.00781802 0.00115011 0 -0.00778421 -0.00137517 0
0.00781802 -0.00134884 0 -3.54912e-19 -0.00808142 0 -0.0017917 -0.00789154 0 0.0017917
-0.00789154 0 -0.00778421 0.0022428 0 -0.0034881 -0.00733407 0 0.0034881 -0.00733407
0 0.00781802 0.00226899 0 -0.005 -0.00644467 0 0.005 -0.00644467 0
-0.00778421 -0.00276868 0 0.00781802 -0.0027423 0 -0.00637208 -0.00537197 0 0.00639053
-0.00535755 0 -0.00778421 0.00328278 0 0.00781802 0.00330893 0 -0.00778421 0.00424939
0 -0.00778421 -0.00426796 0 0.00781802 -0.00424152 0 0.00781802 0.00427551 0
-0.00923755 -0.000243565 0 0.00928347 -0.000207818 0 -0.00923755 0.00104957 0 -0.00778421
0.00514782 0 0.00928347 0.00108525 0 0.00781802 0.0051739 0 -0.00923755 -0.00163485
0 0.00928347 -0.00159903 0 -0.00637208 -0.00698755 0 0.00639053 -0.0069731 0
-0.005 -0.0080627 0 0.005 -0.0080627 0 -0.00923755 0.00225148 0 0.00928347
0.0022871 0 -0.00348222 -0.00891827 0 0.00348222 -0.00891827 0 -0.00178695 -0.00945455
0 0.00178695 -0.00945455 0 -3.41418e-19 -0.00963721 0 -0.00923755 -0.00313172 0
-0.00778421 -0.00588103 0 0.00781802 -0.00585453 0 0.00928347 -0.00309583 0 -0.00923755
0.0033686 0 0.00928347 0.00340416 0 -0.00923755 0.00440692 0 0.00928347 0.00444243
0 -0.00923755 -0.00474221 0 0.00928347 -0.00470623 0 -0.00923755 0.00537198 0
-0.0107333 -0.000467921 0 0.00928347 0.00540745 0 -0.0107333 0.000921062 0 0.0107879
-0.000425364 0 0.00639053 -0.00871127 0 -0.00637208 -0.00872575 0 0.0107879 0.000963535
0 -0.00778421 -0.00761653 0 0.00781802 -0.00758997 0 -0.0107333 -0.00196233 0
0.0107879 -0.00191968 0 -0.0107333 0.00221206 0 -0.005 -0.00980352 0 0.005
-0.00980352 0 0.0107879 0.00225445 0 -0.00923755 0.00626897 0 -0.00347589 -0.0106227
0 0.00347589 -0.0106227 0 0.00928347 0.00630439 0 -0.0107333 0.00341198 0
-0.00178183 -0.0111362 0 0.00178183 -0.0111362 0 -0.00923755 -0.00647493 0 0.00928347
-0.00643887 0 -3.26899e-19 -0.0113111 0 -0.0107333 -0.00357015 0 0.0107879 0.00345431
0 0.0107879 -0.00352741 0 -0.0107333 0.00452726 0 0.0107879 0.00456952 0
-0.0107333 -0.00530001 0 0.0107879 -0.00525717 0 -0.0107333 0.00556386 0 0.0107879
0.00560606 0 -0.000743369 0.0122055 0 0.000743369 0.0122055 0 -0.00778421 -0.00948375
0 0.00781802 -0.00945713 0 -0.0122727 0.000733061 0 -0.0122727 -0.000758799 0
0.0123323 -0.000712262 0 0.0123323 0.0007795 0 0.00639053 -0.0105814 0 -0.00637208
-0.0105959 0 -0.00923755 -0.00833916 0 -0.0122727 0.00211968 0 0.00928347 -0.00830301
0 -0.0122727 -0.00236389 0 0.0123323 0.00216603 0 0.0123323 -0.00231725 0
-0.0107333 0.00652734 0 0.0107879 0.00656947 0 -0.005 -0.0116765 0 0.005
-0.0116765 0 -0.0122727 0.00340848 0 0.0123323 0.00345474 0 -0.000741126 0.0128136
0 0.000741126 0.0128136 0 -0.0107333 -0.00716117 0 0.0107879 -0.00711821 0
-0.00346908 -0.0124565 0 0.00346908 -0.0124565 0 -0.0122727 -0.00409081 0 0.0123323
-0.00404405 0 -0.0107333 0.00742284 0 -0.00177633 -0.0129455 0 0.00177633 -0.0129455
0 -0.0122727 0.00460636 0 -3.11279e-19 -0.013112 0 0.0107879 0.00746492 0
-0.002 0.013 0 0.002 0.013 0 0.0123323 0.00465255 0 -0.0007387
0.0134712 0 0.0007387 0.0134712 0 -0.0122727 0.00571974 0 0.0123323 0.00576585
0 -0.0122727 -0.00594879 0 0.0123323 -0.00590191 0 -0.002 0.0135849 0
0.002 0.0135849 0 -0.0138571 0.000479853 0 -0.00923755 -0.0103449 0 0.00928347
-0.0103086 0 0.00781802 -0.011466 0 -0.00778421 -0.0114927 0 -0.0138571 -0.00112242
0 0.0139177 0.000527252 0 0.0139177 -0.00107491 0 -0.0138571 0.0019691 0
-0.0122727 0.00675458 0 0.0139177 0.00201639 0 0.0123323 0.00680062 0 -0.0107333
-0.00916358 0 0.00639053 -0.0125934 0 0.0107879 -0.0091205 0 -0.00637208 -0.012608
0 -0.0138571 -0.0028463 0 0.0139177 -0.00279868 0 -0.000736077 0.0141824 0
0.000736077 0.0141824 0 -0.00319452 0.0138829 0 0.00320133 0.0138879 0 -0.0138571
0.00335328 0 0.0139177 0.00340049 0 -0.002 0.0142174 0 0.002 0.0142174
0 -0.0122727 0.00771641 0 0.0123323 0.00776239 0 -0.005 -0.0136916 0
0.005 -0.0136916 0 -0.0138571 0.00463982 0 -0.0122727 -0.0079478 0 -0.0138571
-0.00470103 0 0.0123323 -0.00790078 0 0.0139177 -0.00465328 0 0.0139177 0.00468694
0 -0.00319452 0.0144678 0 0.00320133 0.0144728 0 -0.00346175 -0.0144295 0
0.00346175 -0.0144295 0 -0.00073324 0.0149515 0 0.00073324 0.0149515 0 -0.0122727
0.00861039 0 -0.00177041 -0.0148921 0 0.00177041 -0.0148921 0 -0.002 0.0149014
0 0.002 0.0149014 0 -0.0138571 0.0058356 0 -2.94473e-19 -0.0150496 0
0.0123323 0.00865631 0 0.0139177 0.00588264 0 -0.0138571 -0.00669653 0 0.0139177
-0.00664864 0 -0.00319452 0.0151003 0 0.00320133 0.0151053 0 -0.0154877 0.000155282
0 -0.0138571 0.00694702 0 -0.00451419 0.0148583 0 0.0045263 0.0148673 0
0.00928347 -0.0124665 0 -0.00923755 -0.0125028 0 0.0155453 0.000200444 0 -0.0154877
-0.00156548 0 0.0139177 0.00699399 0 -0.0154877 0.00175466 0 -0.0107333 -0.011318
0 0.0107879 -0.0112748 0 0.0155453 -0.00152021 0 0.0155453 0.00179972 0
0.00781802 -0.0136273 0 -0.00778421 -0.0136541 0 -0.002 0.0156411 0 0.002
0.0156411 0 -0.000730172 0.0157833 0 0.000730172 0.0157833 0 -0.0154877 0.0032412
0 -0.0154877 -0.00341685 0 0.0155453 0.00328617 0 -0.0122727 -0.0100985 0
0.0155453 -0.00337146 0 0.0123323 -0.0100514 0 -0.0138571 0.00798004 0 0.0139177
0.00802694 0 0.00639053 -0.0147581 0 -0.00637208 -0.0147727 0 -0.00451419 0.0154432
0 0.0045263 0.0154521 0 -0.00319452 0.0157843 0 0.00320133 0.0157893 0
-0.0154877 0.00462288 0 0.0155453 0.00466776 0 -0.0154877 -0.00540874 0 -0.0138571
-0.00884348 0 0.0155453 -0.00536322 0 0.0139177 -0.00879545 0 -0.0138571 0.00894019
0 -0.002 0.0164411 0 0.002 0.0164411 0 0.0139177 0.00898702 0
-0.0154877 0.00590709 0 -0.005 -0.0158596 0 0.005 -0.0158596 0 0.0155453
0.00595189 0 -0.00451419 0.0160757 0 -0.000726854 0.0166828 0 0.000726854 0.0166828
0 0.0045263 0.0160846 0 -0.00319452 0.016524 0 0.00320133 0.016529 0
-0.00345386 -0.0165523 0 0.00345386 -0.0165523 0 -0.0138571 0.0098326 0 -0.00597213
0.0159359 0 0.00598764 0.0159474 0 -0.0154877 0.00710071 0 0.0139177 0.00987937
0 -0.00176404 -0.0169864 0 0.00176404 -0.0169864 0 0.0155453 0.00714543 0
-2.76391e-19 -0.0171343 0 -0.0171658 -0.000247278 0 0.0172162 -0.000207752 0 -0.0171658
0.00147028 0 -0.0154877 -0.0075518 0 0.0155453 -0.00750615 0 0.0172162 0.00150971
0 -0.0171658 -0.00209519 0 0.0172162 -0.00205556 0 0.0107879 -0.0135925 0
-0.0107333 -0.0136359 0 -0.00451419 0.0167597 0 0.0045263 0.0167686 0 -0.002
0.0173062 0 0.002 0.0173062 0 -0.0171658 0.00306667 0 -0.0122727 -0.0124125
0 0.00928347 -0.0147881 0 0.0123323 -0.0123652 0 -0.00923755 -0.0148246 0
0.0172162 0.00310601 0 -0.0154877 0.00821012 0 -0.00597213 0.0165208 0 0.00598764
0.0165323 0 0.0155453 0.00825477 0 -0.00319452 0.017324 0 0.00320133 0.017329
0 -0.0171658 -0.00408336 0 -0.000723266 0.0176555 0 0.000723266 0.0176555 0
0.0172162 -0.00404362 0 -0.0171658 0.00455044 0 0.00781802 -0.0159527 0 -0.00778421
-0.0159796 0 -0.0138571 -0.0111534 0 0.0139177 -0.0111052 0 0.0172162 0.0045897
0 -0.0154877 0.00924127 0 -0.00451419 0.0174994 0 0.0045263 0.0175084 0
0.0155453 0.00928585 0 -0.0171658 0.00592954 0 -0.00597213 0.0171533 0 0.00598764
0.0171648 0 0.0172162 0.00596872 0 0.00639053 -0.0170872 0 -0.00637208 -0.0171018
0 -0.0171658 -0.00622243 0 0.0172162 -0.00618257 0 -0.002 0.0182418 0
0.002 0.0182418 0 -0.0154877 -0.00985753 0 0.0155453 -0.00981172 0 -0.00319452
0.0181891 0 0.00320133 0.0181941 0 -0.0154877 0.0101997 0 0.0155453 0.0102442
0 -0.0171658 0.00721136 0 0.0172162 0.00725047 0 -0.000719385 0.0187075 0
0.000719385 0.0187075 0 -0.00758282 0.0171264 0 0.00759938 0.0171387 0 -0.00597213
0.0178373 0 0.00598764 0.0178488 0 -0.00451419 0.0182994 0 0.0045263 0.0183083
0 -0.005 -0.0181922 0 0.005 -0.0181922 0 -0.018893 -0.00073496 0
-0.018893 0.0011094 0 0.0189314 -0.000704684 0 0.0189314 0.0011396 0 -0.0154877
0.0110905 0 -0.018893 -0.0027193 0 -0.018893 0.00282365 0 -0.0171658 0.00840275
0 0.0189314 -0.00268894 0 0.0155453 0.0111349 0 0.0189314 0.00285377 0
-0.00344538 -0.0188361 0 0.00344538 -0.0188361 0 -0.0171658 -0.00852385 0 0.0172162
0.00844179 0 0.0172162 -0.00848386 0 -0.00758282 0.0177113 0 0.00759938 0.0177235
0 -0.0122727 -0.0149021 0 0.0123323 -0.0148546 0 -0.00175719 -0.0192397 0
[...]
CELL_DATA 15677
FIELD attributes 1
U 3 15677 float
-0.30487 10.2652 0 0.190475 10.9192 0 -0.101143 9.44667 0 0.0315567 10.9901
0 0.118845 10.7323 0 -0.011927 8.75836 0 0.0455278 11.0075 0
0.0144846 10.9815 0 0.0577135 10.4719 0 0.0115307 8.22933 0 0.046695
11.0122 0 0.0433911 11.0311 0 0.0260936 10.9286 0 0.0319082 10.1908
0 0.0113236 7.85611 0 0.0440121 11.0135 0 0.0424068 11.0439 0
0.042809 11.0209 0 0.0332388 10.8603 0 0.0213719 9.90292 0 0.00644186
7.61192 0 0.0413771 11.0136 0 0.0404482 11.0462 0 0.0402109 11.0448
0 0.0398964 11.0049 0 0.0328255 10.7692 0 0.0159534 9.63758 0
0.00250566 7.45874 0 0.0386364 11.0131 0 0.0389914 11.0453 0 0.0393869
11.0533 0 0.0385067 11.0445 0 0.0358542 10.9826 0 0.0288612 10.6571
0 0.012164 9.41244 0 0.000563521 7.36222 0 0.0356111 11.0123 0
0.0373761 11.0435 0 0.0387189 11.056 0 0.0384554 11.0587 0 0.0360578
11.0421 0 0.0318469 10.9528 0 0.024083 10.5326 0 0.00902335 9.23745
0 1.69738e-05 7.30009 0 0.0323295 11.0113 0 0.0354666 11.0411 0
0.0376305 11.0557 0 0.037896 11.064 0 0.0361279 11.0634 0 0.0329248
11.0364 0 0.0284267 10.9174 0 0.0194928 10.3981 0 0.00646187 9.10668
0 -0.000236877 7.2575 0 0.0288537 11.0101 0 0.033336 11.0382 0
0.0362339 11.054 0 0.0369517 11.0652 0 0.0355706 11.0717 0 0.0329739
11.0663 0 0.0298298 11.0289 0 0.0254218 10.8759 0 0.0154671 10.2694
0 0.00440772 9.01182 0 -0.000467539 7.23302 0 0.0252614 11.0089 0
0.0310074 11.0348 0 0.034578 11.0514 0 0.035735 11.0644 0 0.0346631
11.0746 0 0.0324231 11.0784 0 0.0297881 11.0687 0 0.0268427 11.0213
0 0.022216 10.8305 0 0.0118459 10.1593 0 0.00266711 8.9459 0
-0.000671468 7.22147 0 0.0215472 11.0077 0 0.028486 11.0312 0 0.0326551
11.0481 0 0.0342534 11.0622 0 0.0334669 11.0747 0 0.03148 11.0833
0 0.02913 11.0853 0 0.0266425 11.0724 0 0.0235558 11.0144 0
0.0185208 10.7846 0 0.00845116 10.0705 0 0.00110128 8.90385 0 -0.00108729
7.22347 0 0.0178412 11.0065 0 0.0258783 11.0273 0 0.030451 11.0442
0 0.0324909 11.0592 0 0.0319861 11.0731 0 0.0301993 11.0844 0
0.028 11.0924 0 0.0257236 11.0938 0 0.0231577 11.0784 0 0.0198696
11.009 0 0.0144004 10.741 0 0.00514251 10.0053 0 -0.000541592 8.88287
0 -0.00170794 7.23877 0 0.0146444 11.0053 0 0.0231938 11.0233 0
0.0279933 11.0398 0 0.0304299 11.0554 0 0.0302116 11.0703 0 0.0285967
11.0835 0 0.026469 11.0948 0 0.0242345 11.1033 0 0.0218321 11.105
0 0.0191356 11.0874 0 0.0156792 11.0062 0 0.00992452 10.7051 0
0.00166871 9.96277 0 -0.0022126 8.88098 0 -0.00237501 7.26772 0 0.0120643
11.0043 0 0.0206501 11.0196 0 0.0253169 11.0351 0 0.0280571 11.0508
0 0.0281275 11.0666 0 0.0266676 11.0811 0 0.0245623 11.0945 0
0.0222673 11.107 0 0.019826 11.1169 0 0.0172339 11.1196 0 0.0143916
11.1004 0 0.010781 11.0077 0 0.00503667 10.68 0 -0.00191276 9.94206
0 -0.00410249 8.89741 0 -0.0032015 7.31046 0 0.00990964 11.0034 0
0.0183854 11.0164 0 0.022718 11.0306 0 0.0253775 11.0457 0 0.0257138
11.062 0 0.024395 11.0776 0 0.0222777 11.0926 0 0.0198509 11.1075
0 0.0172466 11.122 0 0.0145343 11.1342 0 0.0117395 11.1386 0
0.00874065 11.1183 0 0.00508243 11.0154 0 -0.000326406 10.6683 0 -0.00577788
9.94209 0 -0.00619166 8.93114 0 -0.00411852 7.36719 0 0.00824184 11.0027
0 0.0163652 11.0136 0 0.0203693 11.0266 0 0.0227012 11.0406 0
0.0229599 11.0566 0 0.0217581 11.0731 0 0.0195991 11.0893 0 0.016983
11.1059 0 0.0141214 11.1232 0 0.0111424 11.1405 0 0.00814514 11.1558
0 0.00514734 11.1627 0 0.00207047 11.1421 0 -0.00145177 11.0308 0
-0.00619354 10.6711 0 -0.00996715 9.96194 0 -0.00849194 8.98211 0 -0.0051163
7.4377 0 0.00685757 11.0021 0 0.0144612 11.0112 0 0.018208 11.0231
0 0.0202294 11.0362 0 0.020169 11.0511 0 0.0187418 11.0675 0
0.0165069 11.0848 0 0.013649 11.1027 0 0.0104452 11.1219 0 0.00708182
11.1424 0 0.00370923 11.1635 0 0.00042903 11.1827 0 -0.00269921 11.193
0 -0.00570101 11.1729 0 -0.00884283 11.0556 0 -0.0126026 10.6897 0
-0.0145136 10.0007 0 -0.0109879 9.04954 0 -0.00618213 7.52178 0 0.00572115
11.0017 0 0.0127755 11.0093 0 0.016192 11.0201 0 0.0179031 11.0321
0 0.0175623 11.0461 0 0.0156732 11.0617 0 0.0129878 11.0791 0
0.0098327 11.0981 0 0.00620292 11.1187 0 0.00234278 11.1413 0 -0.00154748
11.1659 0 -0.00531093 11.1916 0 -0.0088048 11.2156 0 -0.0119196 11.2302
0 -0.0146296 11.2119 0 -0.0171194 11.091 0 -0.0195684 10.7244 0
-0.019414 10.0576 0 -0.0136726 9.13296 0 -0.00729756 7.61877 0 0.00478816
11.0014 0 0.0112541 11.0078 0 0.0143369 11.0174 0 0.0157258 11.0285
0 0.0150912 11.0414 0 0.0128029 11.0562 0 0.00942152 11.0729 0
0.0055267 11.0922 0 0.00138094 11.1139 0 -0.00309345 11.1381 0 -0.00764267
11.1649 0 -0.0120573 11.1945 0 -0.0161405 11.2257 0 -0.0197009 11.2555
0 -0.0225934 11.2751 0 -0.0247569 11.2599 0 -0.0262825 11.1381 0
-0.0270766 10.7756 0 -0.0246491 10.1319 0 -0.0165225 9.23157 0 -0.00846339
7.72802 0 0.00404779 11.0011 0 0.00988731 11.0066 0 0.0126477 11.0152
0 0.0137028 11.0252 0 0.0127745 11.0372 0 0.0100858 11.051 0
0.00609854 11.0669 0 0.00119734 11.0855 0 -0.00401914 11.1075 0 -0.009239
11.1329 0 -0.0146015 11.1615 0 -0.0198399 11.1936 0 -0.0247062 11.229
0 -0.0289562 11.2666 0 -0.032367 11.3029 0 -0.0347762 11.3287 0
-0.0360855 11.3177 0 -0.0363028 11.1975 0 -0.0351011 10.8429 0 -0.0301988
10.2227 0 -0.0195222 9.34467 0 -0.00965907 7.84877 0 0.00347992 11.001
0 0.00872111 11.0056 0 0.0111096 11.0133 0 0.0118425 11.0224 0
0.0106235 11.0333 0 0.00754896 11.046 0 0.00296957 11.061 0 -0.00280911
11.0788 0 -0.00940784 11.1001 0 -0.0160821 11.1258 0 -0.0224366 11.1557
0 -0.028694 11.1897 0 -0.0345489 11.228 0 -0.0397072 11.2702 0
-0.0438942 11.315 0 -0.0468768 11.3587 0 -0.0484793 11.3914 0 -0.0485804
11.3859 0 -0.0471199 11.2697 0 -0.0436 10.9259 0 -0.0360237 10.329
0 -0.0226303 9.47114 0 -0.0108542 7.97982 0 0.00303968 11.0008 0
0.00776668 11.0048 0 0.00976672 11.0117 0 0.0101425 11.0199 0 0.00864796
11.0298 0 0.00521099 11.0415 0 6.95276e-05 11.0553 0 -0.00655364 11.0721
0 -0.0143612 11.0925 0 -0.0228701 11.1174 0 -0.031125 11.1477 0
-0.0386345 11.1832 0 -0.0457179 11.2235 0 -0.052024 11.2689 0 -0.0572284
11.3187 0 -0.0610491 11.3716 0 -0.0632512 11.4234 0 -0.0636667 11.4639
0 -0.0621707 11.4648 0 -0.0586536 11.3546 0 -0.0525084 11.0238 0
-0.0420522 10.4494 0 -0.0257977 9.60973 0 -0.0120351 8.11994 0 0.0026922
11.0007 0 0.00698184 11.0043 0 0.00865028 11.0105 0 0.00866512 11.0177
0 0.00685251 11.0266 0 0.00308564 11.0372 0 -0.002575 11.0499 0
-0.00999292 11.0655 0 -0.0189573 11.0848 0 -0.0290753 11.1087 0 -0.0397063
11.1381 0 -0.0496279 11.174 0 -0.0582342 11.216 0 -0.0659754 11.2637
0 -0.0724701 11.317 0 -0.0773885 11.3754 0 -0.0804554 11.437 0
-0.081459 11.4975 0 -0.0802572 11.5462 0 -0.0767436 11.5545 0 -0.0707845
11.4519 0 -0.0617183 11.1356 0 -0.0482262 10.5828 0 -0.0289866 9.75909
0 -0.0131907 8.26778 0 0.00241362 11.0006 0 0.0063339 11.0038 0
0.00772812 11.0095 0 0.00744704 11.016 0 0.00530833 11.0238 0 0.00118204
11.0333 0 -0.00494436 11.0448 0 -0.0130921 11.059 0 -0.0231427 11.077
0 -0.0347989 11.0996 0 -0.0475191 11.1279 0 -0.060455 11.1628 0
-0.0720536 11.2053 0 -0.0815925 11.255 0 -0.0897145 11.3109 0 -0.0960356
11.3731 0 -0.100239 11.4406 0 -0.102085 11.5115 0 -0.101408 11.5812
0 -0.0981219 11.6387 0 -0.0921684 11.655 0 -0.0833904 11.5613 0
-0.0711232 11.2602 0 -0.0544733 10.7278 0 -0.0321613 9.91778 0 -0.0143004
8.42196 0 0.00218722 11.0006 0 0.00579478 11.0035 0 0.00696047 11.0086
0 0.00644816 11.0146 0 0.00405246 11.0215 0 -0.000422721 11.0297 0
-0.00702455 11.0399 0 -0.0158245 11.0528 0 -0.0268728 11.0692 0 -0.039975
11.0903 0 -0.0546945 11.1171 0 -0.070287 11.1507 0 -0.0856432 11.1921
0 -0.0988231 11.2424 0 -0.109009 11.3007 0 -0.117119 11.3659 0
-0.122791 11.4376 0 -0.125756 11.5148 0 -0.125839 11.5955 0 -0.122959
11.6747 0 -0.117101 11.7411 0 -0.108265 11.7658 0 -0.0963308 11.6818
0 -0.0806356 11.3962 0 -0.0607141 10.8829 0 -0.0352831 10.0842 0
-0.0153529 8.58102 0 0.00200106 11.0005 0 0.0053433 11.0032 0 0.00631768
11.008 0 0.00562521 11.0134 0 0.00303896 11.0196 0 -0.00169597 11.0268
0 -0.00873054 11.0355 0 -0.0181702 11.0468 0 -0.030112 11.0616 0
-0.0445463 11.0809 0 -0.0611503 11.1059 0 -0.0792921 11.1378 0 -0.0979672
11.1779 0 -0.115757 11.2269 0 -0.130294 11.286 0 -0.140708 11.3539
0 -0.148286 11.4291 0 -0.152727 11.511 0 -0.153844 11.5985 0
-0.151566 11.689 0 -0.145915 11.7778 0 -0.136982 11.8531 0 -0.124849
11.8864 0 -0.109443 11.8125 0 -0.090142 11.5421 0 -0.0668742 11.0463
0 -0.0383193 10.2569 0 -0.0163502 8.74356 0 0.00184642 11.0004 0
0.00496286 11.0029 0 0.0057763 11.0074 0 0.00494455 11.0124 0 0.00221995
11.0179 0 -0.00269371 11.0242 0 -0.0100369 11.0317 0 -0.0200337 11.0413
0 -0.0328333 11.0541 0 -0.0484661 11.0715 0 -0.0668136 11.0944 0
-0.0873675 11.1243 0 -0.109239 11.1624 0 -0.131111 11.2099 0 -0.151221
11.2677 0 -0.166749 11.3367 0 -0.17683 11.4152 0 -0.183225 11.5011
0 -0.18574 11.5937 0 -0.184318 11.6915 0 -0.179029 11.7921 0
-0.170033 11.8902 0 -0.157532 11.9742 0 -0.141721 12.016 0 -0.122574
11.9522 0 -0.0995312 11.6966 0 -0.0728914 11.2166 0 -0.0412494 10.4342
0 -0.0172079 8.90848 0 0.00171683 11.0004 0 0.0046404 11.0027 0
0.00531773 11.007 0 0.00437928 11.0115 0 0.00155694 11.0165 0 -0.00347262
11.0221 0 -0.0110159 11.0285 0 -0.0213999 11.0365 0 -0.0349258 11.0472
0 -0.0516977 11.0622 0 -0.0716234 11.0828 0 -0.0944206 11.1103 0
-0.119332 11.146 0 -0.145152 11.1914 0 -0.170207 11.2476 0 -0.192382
11.3153 0 -0.208372 11.3952 0 -0.217392 11.4851 0 -0.221818 11.5822
0 -0.221623 11.6857 0 -0.216921 11.794 0 -0.207953 11.9043 0
-0.195038 12.0114 0 -0.178511 12.1038 0 -0.158678 12.1537 0 -0.13558
12.0997 0 -0.108704 11.858 0 -0.0787225 11.392 0 -0.0440049 10.6148
0 -0.0185204 9.07298 0 0.00160739 11.0004 0 0.00436555 11.0026 0
0.00492694 11.0066 0 0.00390791 11.0108 0 0.00101904 11.0154 0 -0.00407838
11.0202 0 -0.0117383 11.0257 0 -0.0223645 11.0323 0 -0.0363885 11.041
0 -0.0541097 11.0534 0 -0.0755305 11.0712 0 -0.100372 11.096 0
-0.128127 11.1289 0 -0.157722 11.1717 0 -0.187586 11.2256 0 -0.21567
11.2916 0 -0.239466 11.3702 0 -0.255204 11.4619 0 -0.26229 11.5638
0 -0.263858 11.6726 0 -0.2601 11.787 0 -0.251343 11.9056 0
-0.238026 12.0253 0 -0.22064 12.1409 0 -0.199667 12.2409 0 -0.175524
12.2983 0 -0.148322 12.2537 0 -0.117588 12.0248 0 -0.0842964 11.5713
0 -0.0472178 10.7966 0 -0.0197483 9.2668 0 0.00151431 11.0003 0
0.0041301 11.0024 0 0.00459376 11.0063 0 0.00351315 11.0102 0 0.000581587
11.0143 0 -0.00454753 11.0186 0 -0.0122612 11.0232 0 -0.0230185 11.0286
0 -0.0373483 11.0357 0 -0.0557173 11.0456 0 -0.0783751 11.0602 0
-0.105156 11.0815 0 -0.135523 11.1113 0 -0.168672 11.1509 0 -0.203163
11.2019 0 -0.237025 11.2655 0 -0.267776 11.3425 0 -0.292566 11.433
0 -0.307169 11.5374 0 -0.311314 11.6518 0 -0.309043 11.7722 0
-0.300819 11.8976 0 -0.287215 12.0259 0 -0.268896 12.1544 0 -0.246534
12.2778 0 -0.22075 12.3847 0 -0.19207 12.4489 0 -0.160688 12.4126
0 -0.126092 12.1956 0 -0.0899972 11.7524 0 -0.0500461 10.9997 0
-0.0200713 9.46597 0 0.00143458 11.0003 0 0.00392754 11.0023 0 0.00430714
11.006 0 0.003181 11.0097 0 0.000224886 11.0135 0 -0.00490921 11.0172
0 -0.0126301 11.0211 0 -0.0234351 11.0254 0 -0.0379238 11.031 0
-0.0566885 11.0387 0 -0.0801915 11.0502 0 -0.108576 11.0676 0 -0.141431
11.0934 0 -0.177871 11.1294 0 -0.216751 11.1768 0 -0.256206 11.2372
0 -0.293808 11.3117 0 -0.326676 11.4008 0 -0.351638 11.5042 0
-0.364058 11.6218 0 -0.364131 11.7489 0 -0.356966 11.8811 0 -0.343349
12.0169 0 -0.324125 12.1545 0 -0.300195 12.291 0 -0.272412 12.4211
0 -0.241523 12.534 0 -0.208164 12.604 0 -0.172556 12.5755 0
-0.134419 12.3684 0 -0.0954158 11.9548 0 -0.0518898 11.2226 0 -0.0204736
9.66073 0 0.00136575 11.0003 0 0.00375268 11.0022 0 0.00405926 11.0057
0 0.00290148 11.0092 0 -6.6839e-05 11.0127 0 -0.00518654 11.016 0
-0.0128808 11.0193 0 -0.0236723 11.0227 0 -0.0382095 11.0268 0 -0.057177
11.0326 0 -0.0811989 11.0414 0 -0.110685 11.0551 0 -0.145604 11.0761
0 -0.185204 11.1073 0 -0.228181 11.1506 0 -0.272984 11.2071 0
-0.317266 11.2783 0 -0.358148 11.365 0 -0.392369 11.4672 0 -0.416485
11.5842 0 -0.425513 11.7154 0 -0.420289 11.8553 0 -0.407142 11.9988
0 -0.387214 12.1445 0 -0.361641 12.2905 0 -0.331557 12.434 0
-0.297982 12.57 0 -0.26178 12.6878 0 -0.223642 12.7627 0 -0.183994
12.7404 0 -0.142766 12.5622 0 -0.100234 12.1777 0 -0.0539089 11.4415
0 -0.0209046 9.84898 0 0.00130648 11.0003 0 0.00360099 11.0021 0
0.00384517 11.0055 0 0.00266483 11.0088 0 -0.000306057 11.012 0 -0.00539786
11.015 0 -0.0130417 11.0177 0 -0.0237758 11.0202 0 -0.0382807 11.0232
0 -0.0573062 11.0273 0 -0.0815965 11.0336 0 -0.111767 11.0439 0
-0.148119 11.0604 0 -0.190357 11.0859 0 -0.237304 11.1236 0 -0.287146
11.1756 0 -0.337866 11.2425 0 -0.386626 11.3258 0 -0.4301 11.4257
0 -0.464684 11.542 0 -0.486742 11.6731 0 -0.491046 11.8181 0
-0.479243 11.9706 0 -0.459023 12.1249 0 -0.431907 12.2796 0 -0.399324
12.4331 0 -0.362623 12.5826 0 -0.322977 12.7233 0 -0.281316 12.845
0 -0.238463 12.9233 0 -0.195704 12.9255 0 -0.150687 12.776 0
-0.104843 12.3974 0 -0.0558504 11.6541 0 -0.0212636 10.0293 0 0.00346832
11.0021 0 0.00123478 11.0003 0 0.00365872 11.0053 0 0.00246334 11.0085
0 -0.000502713 11.0115 0 -0.00555766 11.0141 0 -0.0131352 11.0163 0
-0.0237813 11.0181 0 -0.0381962 11.02 0 -0.0571734 11.0226 0 -0.0815436
11.0267 0 -0.112078 11.034 0 -0.149335 11.0463 0 -0.193426 11.0663
0 -0.243721 11.0973 0 -0.298496 11.1429 0 -0.355342 11.2048 0
-0.411762 11.2837 0 -0.46441 11.3803 0 -0.509536 11.4946 0 -0.54327
11.6256 0 -0.561901 11.7712 0 -0.560055 11.9299 0 -0.540371 12.0944
0 -0.512021 12.2587 0 -0.476912 12.4216 0 -0.436744 12.5814 0
-0.393064 12.7357 0 -0.347144 12.88 0 -0.299999 13.0041 0 -0.253842
13.1037 0 -0.207158 13.1298 0 -0.157904 12.9871 0 -0.109019 12.6115
0 -0.0575113 11.8587 0 -0.0215319 10.2014 0 0.00349342 11.0052 0
0.00331237 11.002 0 0.00114798 11.0002 0 0.00229021 11.0082 0 -0.000664771
11.011 0 -0.00567708 11.0133 0 -0.0131784 11.015 0 -0.0237166 11.0162
0 -0.0380015 11.0172 0 -0.0568546 11.0184 0 -0.0811661 11.0207 0
-0.11182 11.0252 0 -0.149574 11.0337 0 -0.194861 11.0487 0 -0.247541
11.0731 0 -0.306528 11.1108 0 -0.369443 11.1656 0 -0.433227 11.2391
0 -0.494875 11.3312 0 -0.550546 11.4423 0 -0.596138 11.5719 0
-0.627613 11.7182 0 -0.641315 11.8784 0 -0.631839 12.0504 0 -0.602994
12.2263 0 -0.565529 12.3996 0 -0.521713 12.5694 0 -0.473498 12.7343
0 -0.422567 12.8923 0 -0.370279 13.0387 0 -0.319536 13.1827 0
-0.269167 13.3028 0 -0.217479 13.3317 0 -0.164362 13.1933 0 -0.112601
12.8183 0 -0.0588809 12.0544 0 -0.0217022 10.3646 0 0.00213619 11.0079
0 0.00331161 11.005 0 0.00311507 11.0019 0 0.00106481 11.0002 4.29282e-19
-0.000800073 11.0105 0 -0.00576469 11.0126 0 -0.0131846 11.0139 0 -0.023603
11.0146 0 -0.037732 11.0147 0 -0.0564086 11.0147 0 -0.0805622 11.0153
0 -0.111157 11.0174 0 -0.149098 11.0226 0 -0.195067 11.033 0
-0.249319 11.0514 0 -0.311355 11.0813 0 -0.379523 11.1269 0 -0.450699
11.1924 0 -0.521091 11.2789 0 -0.587209 11.3857 0 -0.644769 11.5125
0 -0.689404 11.658 0 -0.717042 11.8198 0 -0.72422 11.9944 0
-0.705632 12.1792 0 -0.666408 12.3654 0 -0.618939 12.5466 0 -0.565826
12.722 0 -0.509207 12.8909 0 -0.450863 13.051 0 -0.39459 13.217
0 -0.339255 13.38 0 -0.282939 13.4997 0 -0.226704 13.5293 0
-0.169952 13.3927 0 -0.115611 13.0167 0 -0.0599774 12.2407 0 -0.0217778
10.5186 0 -0.000923279 11.0101 0 0.0019849 11.0076 0 0.00309626 11.0047
1.87939e-18 0.00292383 11.0017 -1.35916e-18 0.000984797 11.0002 -8.71221e-19 -0.00582882 11.012 0
-0.0131631 11.013 0 -0.0234564 11.0132 0 -0.0374145 11.0126 0 -0.0558805
11.0115 0 -0.0798076 11.0105 0 -0.110215 11.0105 0 -0.148112 11.0126
0 -0.194372 11.0189 0 -0.249558 11.0318 0 -0.313649 11.0546 0
-0.385684 11.0912 0 -0.463357 11.1462 0 -0.542655 11.224 0 -0.619033
11.3251 0 -0.68857 11.4478 0 -0.746613 11.5912 0 -0.788659 11.7532
0 -0.810748 11.9306 0 -0.809765 12.119 0 -0.780621 12.3156 0
-0.729902 12.511 0 -0.671672 12.6987 0 -0.608792 12.8786 0 -0.543534
13.0498 0 -0.480705 13.2295 0 -0.419341 13.4141 0 -0.357018 13.5753
0 -0.295236 13.6925 0 -0.234746 13.7206 0 -0.174698 13.5845 0
-0.118094 13.2063 0 -0.0608268 12.4173 0 -0.0217714 10.6635 0 -0.0058915
11.0114 0 -0.00100589 11.0097 -3.80456e-18 0.00181716 11.0071 -1.97886e-18 0.00288674 11.0044
9.54087e-19 0.00273594 11.0016 -9.1911e-19 0.000908013 11.0002 0 -0.0131228 11.0122 0
-0.0232876 11.0119 0 -0.0370687 11.0107 0 -0.0553048 11.0087 0 -0.0789602
11.0063 0 -0.109089 11.0044 0 -0.146777 11.0039 0 -0.193034 11.0064
0 -0.248665 11.0143 0 -0.314028 11.0305 0 -0.388732 11.0587 0
-0.471268 11.1034 0 -0.558524 11.1694 0 -0.645518 11.2611 0 -0.72695
11.3782 0 -0.798551 11.518 0 -0.855422 11.6788 0 -0.893065 11.8575
0 -0.907804 12.0501 0 -0.897028 12.2517 0 -0.855973 12.459 0
-0.792785 12.6622 0 -0.723182 12.8551 0 -0.650204 13.0378 0 -0.579853
13.2287 0 -0.511281 13.427 0 -0.441713 13.6091 0 -0.372891 13.7665
0 -0.306001 13.8795 0 -0.241622 13.9048 0 -0.17866 13.768 0
-0.120097 13.3863 0 -0.0614593 12.5839 0 -0.0216973 10.7991 0 -0.0130962
11.0114 0 -0.00585893 11.0108 8.00735e-18 -0.00105483 11.0091 0 0.00165628 11.0067
2.00767e-18 0.00268428 11.0042 5.85171e-22 0.00255194 11.0015 0 0.000834444 11.0002 0
-0.0231058 11.0108 0 -0.0367074 11.009 0 -0.054706 11.0062 0 -0.0780641
11.0026 0 -0.107856 10.999 0 -0.145216 10.9961 0 -0.191258 10.9953
0 -0.246964 10.9988 0 -0.312991 11.009 0 -0.38941 11.0294 0
-0.475382 11.0643 0 -0.568702 11.1185 0 -0.665351 11.1972 0 -0.759296
11.3044 0 -0.84452 11.439 0 -0.916543 11.5969 0 -0.97036 11.7755
0 -1.00166 11.9709 0 -1.00721 12.1782 0 -0.985057 12.3919 0
-0.930863 12.6085 0 -0.8544 12.8181 0 -0.772972 13.0145 0 -0.694163
13.2173 0 -0.617246 13.427 0 -0.539025 13.6226 0 -0.461734 13.8003
0 -0.386845 13.9522 0 -0.315256 14.0597 0 -0.247413 14.0813 0
-0.181903 13.9425 0 -0.12167 13.5568 0 -0.0619053 12.7407 0 -0.0215682
10.9258 0 -0.0229584 11.0098 0 -0.0128975 11.0106 5.01939e-22 -0.00570791 11.01
0 -0.00110161 11.0085 -2.11277e-18 0.00150429 11.0063 4.18718e-22 0.00248905 11.004 0
0.00237189 11.0014 0 0.000764082 11.0001 0 -0.0363401 11.0075 0 -0.0540994
11.004 0 -0.0771505 10.9994 0 -0.10657 10.9942 0 -0.143525 10.9892
0 -0.189199 10.9855 0 -0.244709 10.9849 0 -0.31094 10.9897 0
-0.388329 11.0031 0 -0.476589 11.029 0 -0.57429 11.072 0 -0.678425
11.1374 0 -0.783965 11.2303 0 -0.883778 11.3547 0 -0.971208 11.5081
0 -1.04174 11.6849 0 -1.09044 11.8815 0 -1.11337 12.0932 0
-1.10792 12.3142 0 -1.07291 12.5388 0 -1.0045 12.7633 0 -0.914134
12.9774 0 -0.825991 13.1946 0 -0.739603 13.4165 0 -0.651308 13.6236
0 -0.563912 13.8145 0 -0.47939 13.9861 0 -0.398916 14.1313 0
-0.323099 14.2325 0 -0.252207 14.2494 0 -0.184499 14.108 0 -0.122865
13.7175 0 -0.062191 12.8876 0 -0.0213952 11.0439 0 -0.0360349 11.0062
0 -0.0225326 11.0086 -4.4283e-18 -0.0124521 11.0095 0 -0.00556151 11.0092 0
-0.00113514 11.0079 6.42694e-18 0.0013611 11.0059 0 0.00230088 11.0037 0 0.00219595
11.0013 1.91521e-18 0.00069693 11.0001 0 -0.053495 11.002 0 -0.0762377 10.9965
0 -0.105272 10.99 0 -0.141776 10.9831 0 -0.186979 10.9768 0
-0.242097 10.9726 0 -0.308188 10.9726 0 -0.385976 10.9795 0 -0.475619
10.9971 0 -0.576337 11.0297 0 -0.686001 11.0824 0 -0.800691 11.1607
0 -0.914287 11.2697 0 -1.01853 11.4128 0 -1.10626 11.586 0
-1.17316 11.7822 0 -1.21456 11.9968 0 -1.22708 12.224 0 -1.20888
12.4577 0 -1.15968 12.6917 0 -1.07616 12.9221 0 -0.977944 13.158
0 -0.880979 13.395 0 -0.781133 13.6145 0 -0.681941 13.8168 0
-0.585934 14.0012 0 -0.494734 14.1654 0 -0.409214 14.3031 0 -0.329646
14.3973 0 -0.256105 14.4089 0 -0.186521 14.2642 0 -0.123729 13.8685
0 -0.0623417 13.0251 0 -0.0211887 11.1537 0 -0.0529894 11.0003 0
-0.0353063 11.0047 0 -0.0216753 11.0073 -4.83945e-18 -0.0120234 11.0085 -4.67038e-18 -0.00539579
11.0085 -9.00879e-18 -0.00115532 11.0074 0 0.00122678 11.0056 -4.18389e-18 0.00211999 11.0035
-4.02971e-18 0.00202408 11.0012 1.9395e-18 0.00063283 11.0001 0 -0.0753366 10.9939 0
-0.103985 10.9862 0 -0.140018 10.9777 0 -0.184689 10.969 0 -0.23928
10.9616 0 -0.304982 10.9573 0 -0.382739 10.9585 0 -0.473064 10.9686
0 -0.575709 10.9916 0 -0.689296 11.0324 0 -0.81089 11.0965 0
-0.935555 11.1894 0 -1.05601 11.3162 0 -1.16289 11.4794 0 -1.24875