#           x             T
    -0.118947        349.87
    -0.118121       349.865
    -0.117174       349.859
    -0.116087       349.853
     -0.11484       349.849
    -0.113408       349.846
    -0.111764       349.844
    -0.109877       349.842
    -0.107712        349.84
    -0.105227       349.839
    -0.102374       349.838
   -0.0990995       349.837
   -0.0953416       349.838
   -0.0914285       349.842
   -0.0876191       349.853
   -0.0838095       349.878
        -0.08       349.933
   -0.0761904       350.049
   -0.0723809       350.296
   -0.0685715       350.811
   -0.0649271       351.824
    -0.061624        353.63
    -0.058655       356.561
   -0.0559862       360.841
   -0.0535874       366.396
   -0.0514313       372.814
   -0.0494932       379.428
   -0.0477512       385.461
   -0.0461853       390.276
   -0.0447779       393.669
   -0.0435128       395.759
   -0.0423757       396.779
   -0.0413536       397.087
   -0.0404349       396.954
     -0.03925       396.444
     -0.03775       395.639
     -0.03625       394.863
     -0.03475       394.273
     -0.03325       393.876
     -0.03175        393.65
     -0.03025       393.559
     -0.02875        393.56
     -0.02725       393.626
     -0.02575       393.736
   -0.0243994       393.865
   -0.0231362           394
    -0.021743       394.147
   -0.0202065       394.296
   -0.0189203       394.404
   -0.0180315        394.47
   -0.0166427       394.554
   -0.0145812       394.641
    -0.012414       394.649
   -0.0110231       394.629
   -0.0100402       394.601
  -0.00847254        394.54
  -0.00677747       394.454
  -0.00524316       394.371
  -0.00385435       394.296
  -0.00288618       394.245
  -0.00228892       394.214
  -0.00133333       394.169
            0       394.117
   0.00133333        394.08
     0.002289       394.062
   0.00288966       394.056
   0.00386381       394.058
   0.00525697       394.082
   0.00679351       394.142
    0.0084882       394.261
    0.0100473       394.423
    0.0110276       394.548
    0.0124188       394.759
    0.0145859       395.182
    0.0166548       395.665
    0.0180384       396.029
    0.0189282       396.281
    0.0202225       396.669
    0.0217568       397.149
    0.0231456       397.506
    0.0244027        397.77
      0.02575       397.957
      0.02725       398.044
      0.02875       397.969
      0.03025       397.659
      0.03175       397.084
      0.03325       396.232
      0.03475       395.067
      0.03625       393.526
      0.03775       391.547
      0.03925       389.201
    0.0404349       386.913
    0.0413536       384.793
    0.0423757       382.412
    0.0435128       379.622
    0.0447779       376.442
    0.0461853       372.929
    0.0477511       369.195
    0.0494932       365.399
    0.0514312       361.729
    0.0535874       358.419
    0.0559862       355.656
    0.0586549       353.536
     0.061624       352.044
    0.0649271       351.074
    0.0685714       350.493
    0.0723809       350.176
    0.0761904       350.014
         0.08       349.932
    0.0838095       349.891
     0.087619        349.87
    0.0914285        349.86
    0.0953419       349.856
    0.0991002       349.854
     0.102374       349.854
     0.105227       349.854
     0.107713       349.855
     0.109878       349.856
     0.111765       349.858
     0.113408        349.86
      0.11484       349.863
     0.116088       349.867
     0.117175       349.872
     0.118122       349.878
     0.118947       349.883
     0.119665       349.886
