%!PS-Adobe-3.0 EPSF-3.0
%%LanguageLevel: 3
%%Title: residuals.eps
%%Creator: Matplotlib v3.10.0, https://matplotlib.org/
%%CreationDate: Mon Feb 17 10:46:12 2025
%%Orientation: portrait
%%BoundingBox: 0 0 461 346
%%HiResBoundingBox: 0.000000 0.000000 460.800000 345.600000
%%EndComments
%%BeginProlog
/mpldict 9 dict def
mpldict begin
/_d { bind def } bind def
/m { moveto } _d
/l { lineto } _d
/r { rlineto } _d
/c { curveto } _d
/cl { closepath } _d
/ce { closepath eofill } _d
/sc { setcachedevice } _d
%!PS-Adobe-3.0 Resource-Font
%%Creator: Converted from TrueType to Type 3 by Matplotlib.
10 dict begin
/FontName /DejaVuSans def
/PaintType 0 def
/FontMatrix [0.00048828125 0 0 0.00048828125 0 0] def
/FontBBox [-2090 -948 3673 2524] def
/FontType 3 def
/Encoding [/minus /space /period /zero /one /two /three /four /five /R /T /U /bracketleft /bracketright /a /d /e /i /k /l /m /n /o /p /s /t /u /x /y] def
/CharStrings 30 dict dup begin
/.notdef 0 def
/minus{1716 0 217 557 1499 727 sc
217 727 m
1499 727 l
1499 557 l
217 557 l
217 727 l

ce} _d
/space{651 0 0 0 0 0 sc
ce} _d
/period{651 0 219 0 430 254 sc
219 254 m
430 254 l
430 0 l
219 0 l
219 254 l

ce} _d
/zero{1303 0 135 -29 1167 1520 sc
651 1360 m
547 1360 469 1309 416 1206 c
364 1104 338 950 338 745 c
338 540 364 387 416 284 c
469 182 547 131 651 131 c
756 131 834 182 886 284 c
939 387 965 540 965 745 c
965 950 939 1104 886 1206 c
834 1309 756 1360 651 1360 c

651 1520 m
818 1520 946 1454 1034 1321 c
1123 1189 1167 997 1167 745 c
1167 494 1123 302 1034 169 c
946 37 818 -29 651 -29 c
484 -29 356 37 267 169 c
179 302 135 494 135 745 c
135 997 179 1189 267 1321 c
356 1454 484 1520 651 1520 c

ce} _d
/one{1303 0 225 0 1114 1493 sc
254 170 m
584 170 l
584 1309 l
225 1237 l
225 1421 l
582 1493 l
784 1493 l
784 170 l
1114 170 l
1114 0 l
254 0 l
254 170 l

ce} _d
/two{1303 0 150 0 1098 1520 sc
393 170 m
1098 170 l
1098 0 l
150 0 l
150 170 l
227 249 331 356 463 489 c
596 623 679 709 713 748 c
778 821 823 882 848 932 c
874 983 887 1032 887 1081 c
887 1160 859 1225 803 1275 c
748 1325 675 1350 586 1350 c
523 1350 456 1339 385 1317 c
315 1295 240 1262 160 1217 c
160 1421 l
241 1454 317 1478 388 1495 c
459 1512 523 1520 582 1520 c
737 1520 860 1481 952 1404 c
1044 1327 1090 1223 1090 1094 c
1090 1033 1078 974 1055 919 c
1032 864 991 800 930 725 c
913 706 860 650 771 557 c
682 465 556 336 393 170 c

ce} _d
/three{1303 0 156 -29 1139 1520 sc
831 805 m
928 784 1003 741 1057 676 c
1112 611 1139 530 1139 434 c
1139 287 1088 173 987 92 c
886 11 742 -29 555 -29 c
492 -29 428 -23 361 -10 c
295 2 227 20 156 45 c
156 240 l
212 207 273 183 340 166 c
407 149 476 141 549 141 c
676 141 772 166 838 216 c
905 266 938 339 938 434 c
938 522 907 591 845 640 c
784 690 698 715 588 715 c
414 715 l
414 881 l
596 881 l
695 881 771 901 824 940 c
877 980 903 1037 903 1112 c
903 1189 876 1247 821 1288 c
767 1329 689 1350 588 1350 c
533 1350 473 1344 410 1332 c
347 1320 277 1301 201 1276 c
201 1456 l
278 1477 349 1493 416 1504 c
483 1515 547 1520 606 1520 c
759 1520 881 1485 970 1415 c
1059 1346 1104 1252 1104 1133 c
1104 1050 1080 980 1033 923 c
986 866 918 827 831 805 c

ce} _d
/four{1303 0 100 0 1188 1493 sc
774 1317 m
264 520 l
774 520 l
774 1317 l

721 1493 m
975 1493 l
975 520 l
1188 520 l
1188 352 l
975 352 l
975 0 l
774 0 l
774 352 l
100 352 l
100 547 l
721 1493 l

ce} _d
/five{1303 0 158 -29 1124 1493 sc
221 1493 m
1014 1493 l
1014 1323 l
406 1323 l
406 957 l
435 967 465 974 494 979 c
523 984 553 987 582 987 c
749 987 881 941 978 850 c
1075 759 1124 635 1124 479 c
1124 318 1074 193 974 104 c
874 15 733 -29 551 -29 c
488 -29 424 -24 359 -13 c
294 -2 227 14 158 35 c
158 238 l
218 205 280 181 344 165 c
408 149 476 141 547 141 c
662 141 754 171 821 232 c
888 293 922 375 922 479 c
922 583 888 665 821 726 c
754 787 662 817 547 817 c
493 817 439 811 385 799 c
332 787 277 768 221 743 c
221 1493 l

ce} _d
/R{1423 0 201 0 1364 1493 sc
909 700 m
952 685 994 654 1035 606 c
1076 558 1118 492 1159 408 c
1364 0 l
1147 0 l
956 383 l
907 483 859 549 812 582 c
766 615 703 631 623 631 c
403 631 l
403 0 l
201 0 l
201 1493 l
657 1493 l
828 1493 955 1457 1039 1386 c
1123 1315 1165 1207 1165 1063 c
1165 969 1143 891 1099 829 c
1056 767 992 724 909 700 c

403 1327 m
403 797 l
657 797 l
754 797 828 819 877 864 c
927 909 952 976 952 1063 c
952 1150 927 1216 877 1260 c
828 1305 754 1327 657 1327 c
403 1327 l

ce} _d
/T{1251 0 -6 0 1257 1493 sc
-6 1493 m
1257 1493 l
1257 1323 l
727 1323 l
727 0 l
524 0 l
524 1323 l
-6 1323 l
-6 1493 l

ce} _d
/U{1499 0 178 -29 1321 1493 sc
178 1493 m
381 1493 l
381 586 l
381 426 410 311 468 240 c
526 170 620 135 750 135 c
879 135 973 170 1031 240 c
1089 311 1118 426 1118 586 c
1118 1493 l
1321 1493 l
1321 561 l
1321 366 1273 219 1176 120 c
1080 21 938 -29 750 -29 c
561 -29 419 21 322 120 c
226 219 178 366 178 561 c
178 1493 l

ce} _d
/bracketleft{799 0 176 -270 600 1556 sc
176 1556 m
600 1556 l
600 1413 l
360 1413 l
360 -127 l
600 -127 l
600 -270 l
176 -270 l
176 1556 l

ce} _d
/bracketright{799 0 199 -270 623 1556 sc
623 1556 m
623 -270 l
199 -270 l
199 -127 l
438 -127 l
438 1413 l
199 1413 l
199 1556 l
623 1556 l

ce} _d
/a{1255 0 123 -29 1069 1147 sc
702 563 m
553 563 450 546 393 512 c
336 478 307 420 307 338 c
307 273 328 221 371 182 c
414 144 473 125 547 125 c
649 125 731 161 792 233 c
854 306 885 402 885 522 c
885 563 l
702 563 l

1069 639 m
1069 0 l
885 0 l
885 170 l
843 102 791 52 728 19 c
665 -13 589 -29 498 -29 c
383 -29 292 3 224 67 c
157 132 123 218 123 326 c
123 452 165 547 249 611 c
334 675 460 707 627 707 c
885 707 l
885 725 l
885 810 857 875 801 921 c
746 968 668 991 567 991 c
503 991 441 983 380 968 c
319 953 261 930 205 899 c
205 1069 l
272 1095 338 1114 401 1127 c
464 1140 526 1147 586 1147 c
748 1147 869 1105 949 1021 c
1029 937 1069 810 1069 639 c

ce} _d
/d{1300 0 113 -29 1114 1556 sc
930 950 m
930 1556 l
1114 1556 l
1114 0 l
930 0 l
930 168 l
891 101 842 52 783 19 c
724 -13 654 -29 571 -29 c
436 -29 325 25 240 133 c
155 241 113 383 113 559 c
113 735 155 877 240 985 c
325 1093 436 1147 571 1147 c
654 1147 724 1131 783 1098 c
842 1066 891 1017 930 950 c

303 559 m
303 424 331 317 386 240 c
442 163 519 125 616 125 c
713 125 790 163 846 240 c
902 317 930 424 930 559 c
930 694 902 800 846 877 c
790 954 713 993 616 993 c
519 993 442 954 386 877 c
331 800 303 694 303 559 c

ce} _d
/e{1260 0 113 -29 1151 1147 sc
1151 606 m
1151 516 l
305 516 l
313 389 351 293 419 226 c
488 160 583 127 705 127 c
776 127 844 136 910 153 c
977 170 1043 196 1108 231 c
1108 57 l
1042 29 974 8 905 -7 c
836 -22 765 -29 694 -29 c
515 -29 374 23 269 127 c
165 231 113 372 113 549 c
113 732 162 878 261 985 c
360 1093 494 1147 662 1147 c
813 1147 932 1098 1019 1001 c
1107 904 1151 773 1151 606 c

967 660 m
966 761 937 841 882 901 c
827 961 755 991 664 991 c
561 991 479 962 417 904 c
356 846 320 764 311 659 c
967 660 l

ce} _d
/i{569 0 193 0 377 1556 sc
193 1120 m
377 1120 l
377 0 l
193 0 l
193 1120 l

193 1556 m
377 1556 l
377 1323 l
193 1323 l
193 1556 l

ce} _d
/k{1186 0 186 0 1180 1556 sc
186 1556 m
371 1556 l
371 637 l
920 1120 l
1155 1120 l
561 596 l
1180 0 l
940 0 l
371 547 l
371 0 l
186 0 l
186 1556 l

ce} _d
/l{569 0 193 0 377 1556 sc
193 1556 m
377 1556 l
377 0 l
193 0 l
193 1556 l

ce} _d
/m{1995 0 186 0 1821 1147 sc
1065 905 m
1111 988 1166 1049 1230 1088 c
1294 1127 1369 1147 1456 1147 c
1573 1147 1663 1106 1726 1024 c
1789 943 1821 827 1821 676 c
1821 0 l
1636 0 l
1636 670 l
1636 777 1617 857 1579 909 c
1541 961 1483 987 1405 987 c
1310 987 1234 955 1179 892 c
1124 829 1096 742 1096 633 c
1096 0 l
911 0 l
911 670 l
911 778 892 858 854 909 c
816 961 757 987 678 987 c
584 987 509 955 454 891 c
399 828 371 742 371 633 c
371 0 l
186 0 l
186 1120 l
371 1120 l
371 946 l
413 1015 463 1065 522 1098 c
581 1131 650 1147 731 1147 c
812 1147 881 1126 938 1085 c
995 1044 1038 984 1065 905 c

ce} _d
/n{1298 0 186 0 1124 1147 sc
1124 676 m
1124 0 l
940 0 l
940 670 l
940 776 919 855 878 908 c
837 961 775 987 692 987 c
593 987 514 955 457 892 c
400 829 371 742 371 633 c
371 0 l
186 0 l
186 1120 l
371 1120 l
371 946 l
415 1013 467 1064 526 1097 c
586 1130 655 1147 733 1147 c
862 1147 959 1107 1025 1027 c
1091 948 1124 831 1124 676 c

ce} _d
/o{1253 0 113 -29 1141 1147 sc
627 991 m
528 991 450 952 393 875 c
336 798 307 693 307 559 c
307 425 335 319 392 242 c
449 165 528 127 627 127 c
725 127 803 166 860 243 c
917 320 946 426 946 559 c
946 692 917 797 860 874 c
803 952 725 991 627 991 c

627 1147 m
787 1147 913 1095 1004 991 c
1095 887 1141 743 1141 559 c
1141 376 1095 232 1004 127 c
913 23 787 -29 627 -29 c
466 -29 340 23 249 127 c
158 232 113 376 113 559 c
113 743 158 887 249 991 c
340 1095 466 1147 627 1147 c

ce} _d
/p{1300 0 186 -426 1188 1147 sc
371 168 m
371 -426 l
186 -426 l
186 1120 l
371 1120 l
371 950 l
410 1017 458 1066 517 1098 c
576 1131 647 1147 729 1147 c
865 1147 975 1093 1060 985 c
1145 877 1188 735 1188 559 c
1188 383 1145 241 1060 133 c
975 25 865 -29 729 -29 c
647 -29 576 -13 517 19 c
458 52 410 101 371 168 c

997 559 m
997 694 969 800 913 877 c
858 954 781 993 684 993 c
587 993 510 954 454 877 c
399 800 371 694 371 559 c
371 424 399 317 454 240 c
510 163 587 125 684 125 c
781 125 858 163 913 240 c
969 317 997 424 997 559 c

ce} _d
/s{1067 0 111 -29 967 1147 sc
907 1087 m
907 913 l
855 940 801 960 745 973 c
689 986 631 993 571 993 c
480 993 411 979 365 951 c
320 923 297 881 297 825 c
297 782 313 749 346 724 c
379 700 444 677 543 655 c
606 641 l
737 613 829 573 884 522 c
939 471 967 400 967 309 c
967 205 926 123 843 62 c
761 1 648 -29 504 -29 c
444 -29 381 -23 316 -11 c
251 0 183 18 111 41 c
111 231 l
179 196 246 169 312 151 c
378 134 443 125 508 125 c
595 125 661 140 708 169 c
755 199 778 241 778 295 c
778 345 761 383 727 410 c
694 437 620 462 506 487 c
442 502 l
328 526 246 563 195 612 c
144 662 119 730 119 817 c
119 922 156 1004 231 1061 c
306 1118 412 1147 549 1147 c
617 1147 681 1142 741 1132 c
801 1122 856 1107 907 1087 c

ce} _d
/t{803 0 55 0 754 1438 sc
375 1438 m
375 1120 l
754 1120 l
754 977 l
375 977 l
375 369 l
375 278 387 219 412 193 c
437 167 488 154 565 154 c
754 154 l
754 0 l
565 0 l
423 0 325 26 271 79 c
217 132 190 229 190 369 c
190 977 l
55 977 l
55 1120 l
190 1120 l
190 1438 l
375 1438 l

ce} _d
/u{1298 0 174 -29 1112 1147 sc
174 442 m
174 1120 l
358 1120 l
358 449 l
358 343 379 263 420 210 c
461 157 523 131 606 131 c
705 131 784 163 841 226 c
899 289 928 376 928 485 c
928 1120 l
1112 1120 l
1112 0 l
928 0 l
928 172 l
883 104 831 53 772 20 c
713 -13 645 -29 567 -29 c
438 -29 341 11 274 91 c
207 171 174 288 174 442 c

637 1147 m
637 1147 l

ce} _d
/x{1212 0 59 0 1145 1120 sc
1124 1120 m
719 575 l
1145 0 l
928 0 l
602 440 l
276 0 l
59 0 l
494 586 l
96 1120 l
313 1120 l
610 721 l
907 1120 l
1124 1120 l

ce} _d
/y{1212 0 61 -426 1151 1120 sc
659 -104 m
607 -237 556 -324 507 -365 c
458 -406 392 -426 309 -426 c
162 -426 l
162 -272 l
270 -272 l
321 -272 360 -260 388 -236 c
416 -212 447 -155 481 -66 c
514 18 l
61 1120 l
256 1120 l
606 244 l
956 1120 l
1151 1120 l
659 -104 l

ce} _d
end readonly def

/BuildGlyph {
 exch begin
 CharStrings exch
 2 copy known not {pop /.notdef} if
 true 3 1 roll get exec
 end
} _d

/BuildChar {
 1 index /Encoding get exch get
 1 index /BuildGlyph get exec
} _d

FontName currentdict end definefont pop
end
%%EndProlog
mpldict begin
0 0 translate
0 0 460.8 345.6 rectclip
gsave
0 0 m
460.8 0 l
460.8 345.6 l
0 345.6 l
cl
1 setgray
fill
grestore
gsave
57.6 38.016 m
414.72 38.016 l
414.72 304.128 l
57.6 304.128 l
cl
1 setgray
fill
grestore
0.8 setlinewidth
1 setlinejoin
2 setlinecap
[] 0 setdash
0.69 setgray
gsave
57.6 38.016 357.12 266.112 rectclip
73.824942 38.016 m
73.824942 304.128 l
stroke
grestore
0 setlinecap
0 setgray
gsave
/o {
gsave
newpath
translate
0.8 setlinewidth
1 setlinejoin

0 setlinecap

0 0 m
0 -3.5 l

gsave
0 setgray
fill
grestore
stroke
grestore
} bind def
73.8249 38.016 o
grestore
/DejaVuSans 10.000 selectfont
gsave

65.8718 23.4222 translate
0 rotate
0 0 m /zero glyphshow
6.3623 0 m /period glyphshow
9.54102 0 m /zero glyphshow
grestore
2 setlinecap
0.69 setgray
gsave
57.6 38.016 357.12 266.112 rectclip
138.757408 38.016 m
138.757408 304.128 l
stroke
grestore
0 setlinecap
0 setgray
gsave
/o {
gsave
newpath
translate
0.8 setlinewidth
1 setlinejoin

0 setlinecap

0 0 m
0 -3.5 l

gsave
0 setgray
fill
grestore
stroke
grestore
} bind def
138.757 38.016 o
grestore
/DejaVuSans 10.000 selectfont
gsave

130.804 23.4222 translate
0 rotate
0 0 m /zero glyphshow
6.3623 0 m /period glyphshow
9.54102 0 m /one glyphshow
grestore
2 setlinecap
0.69 setgray
gsave
57.6 38.016 357.12 266.112 rectclip
203.689874 38.016 m
203.689874 304.128 l
stroke
grestore
0 setlinecap
0 setgray
gsave
/o {
gsave
newpath
translate
0.8 setlinewidth
1 setlinejoin

0 setlinecap

0 0 m
0 -3.5 l

gsave
0 setgray
fill
grestore
stroke
grestore
} bind def
203.69 38.016 o
grestore
/DejaVuSans 10.000 selectfont
gsave

195.737 23.4222 translate
0 rotate
0 0 m /zero glyphshow
6.3623 0 m /period glyphshow
9.54102 0 m /two glyphshow
grestore
2 setlinecap
0.69 setgray
gsave
57.6 38.016 357.12 266.112 rectclip
268.62234 38.016 m
268.62234 304.128 l
stroke
grestore
0 setlinecap
0 setgray
gsave
/o {
gsave
newpath
translate
0.8 setlinewidth
1 setlinejoin

0 setlinecap

0 0 m
0 -3.5 l

gsave
0 setgray
fill
grestore
stroke
grestore
} bind def
268.622 38.016 o
grestore
/DejaVuSans 10.000 selectfont
gsave

260.669 23.4222 translate
0 rotate
0 0 m /zero glyphshow
6.3623 0 m /period glyphshow
9.54102 0 m /three glyphshow
grestore
2 setlinecap
0.69 setgray
gsave
57.6 38.016 357.12 266.112 rectclip
333.554807 38.016 m
333.554807 304.128 l
stroke
grestore
0 setlinecap
0 setgray
gsave
/o {
gsave
newpath
translate
0.8 setlinewidth
1 setlinejoin

0 setlinecap

0 0 m
0 -3.5 l

gsave
0 setgray
fill
grestore
stroke
grestore
} bind def
333.555 38.016 o
grestore
/DejaVuSans 10.000 selectfont
gsave

325.602 23.4222 translate
0 rotate
0 0 m /zero glyphshow
6.3623 0 m /period glyphshow
9.54102 0 m /four glyphshow
grestore
2 setlinecap
0.69 setgray
gsave
57.6 38.016 357.12 266.112 rectclip
398.487273 38.016 m
398.487273 304.128 l
stroke
grestore
0 setlinecap
0 setgray
gsave
/o {
gsave
newpath
translate
0.8 setlinewidth
1 setlinejoin

0 setlinecap

0 0 m
0 -3.5 l

gsave
0 setgray
fill
grestore
stroke
grestore
} bind def
398.487 38.016 o
grestore
/DejaVuSans 10.000 selectfont
gsave

390.534 23.4222 translate
0 rotate
0 0 m /zero glyphshow
6.3623 0 m /period glyphshow
9.54102 0 m /five glyphshow
grestore
/DejaVuSans 10.000 selectfont
gsave

215.777 9.75037 translate
0 rotate
0 0 m /T glyphshow
5.8584 0 m /i glyphshow
8.63672 0 m /m glyphshow
18.3779 0 m /e glyphshow
24.5303 0 m /space glyphshow
27.709 0 m /bracketleft glyphshow
31.6104 0 m /s glyphshow
36.8203 0 m /bracketright glyphshow
grestore
2 setlinecap
0.69 setgray
gsave
57.6 38.016 357.12 266.112 rectclip
57.6 75.622809 m
414.72 75.622809 l
stroke
grestore
0 setlinecap
0 setgray
gsave
/o {
gsave
newpath
translate
0.8 setlinewidth
1 setlinejoin

0 setlinecap

-0 0 m
-3.5 0 l

gsave
0 setgray
fill
grestore
stroke
grestore
} bind def
57.6 75.6228 o
grestore
gsave
26.6 71.6619 translate
0 rotate
/DejaVuSans 10.0 selectfont
0 0.0640625 moveto
/one glyphshow
6.3623 0.0640625 moveto
/zero glyphshow
/DejaVuSans 7.0 selectfont
12.8203 3.89219 moveto
/minus glyphshow
18.6855 3.89219 moveto
/four glyphshow
grestore
2 setlinecap
0.69 setgray
gsave
57.6 38.016 357.12 266.112 rectclip
57.6 129.725107 m
414.72 129.725107 l
stroke
grestore
0 setlinecap
0 setgray
gsave
/o {
gsave
newpath
translate
0.8 setlinewidth
1 setlinejoin

0 setlinecap

-0 0 m
-3.5 0 l

gsave
0 setgray
fill
grestore
stroke
grestore
} bind def
57.6 129.725 o
grestore
gsave
26.6 125.264 translate
0 rotate
/DejaVuSans 10.0 selectfont
0 0.976562 moveto
/one glyphshow
6.3623 0.976562 moveto
/zero glyphshow
/DejaVuSans 7.0 selectfont
12.8203 4.80469 moveto
/minus glyphshow
18.6855 4.80469 moveto
/three glyphshow
grestore
2 setlinecap
0.69 setgray
gsave
57.6 38.016 357.12 266.112 rectclip
57.6 183.827405 m
414.72 183.827405 l
stroke
grestore
0 setlinecap
0 setgray
gsave
/o {
gsave
newpath
translate
0.8 setlinewidth
1 setlinejoin

0 setlinecap

-0 0 m
-3.5 0 l

gsave
0 setgray
fill
grestore
stroke
grestore
} bind def
57.6 183.827 o
grestore
gsave
26.6 179.366 translate
0 rotate
/DejaVuSans 10.0 selectfont
0 0.976562 moveto
/one glyphshow
6.3623 0.976562 moveto
/zero glyphshow
/DejaVuSans 7.0 selectfont
12.8203 4.80469 moveto
/minus glyphshow
18.6855 4.80469 moveto
/two glyphshow
grestore
2 setlinecap
0.69 setgray
gsave
57.6 38.016 357.12 266.112 rectclip
57.6 237.929702 m
414.72 237.929702 l
stroke
grestore
0 setlinecap
0 setgray
gsave
/o {
gsave
newpath
translate
0.8 setlinewidth
1 setlinejoin

0 setlinecap

-0 0 m
-3.5 0 l

gsave
0 setgray
fill
grestore
stroke
grestore
} bind def
57.6 237.93 o
grestore
gsave
26.6 233.969 translate
0 rotate
/DejaVuSans 10.0 selectfont
0 0.0640625 moveto
/one glyphshow
6.3623 0.0640625 moveto
/zero glyphshow
/DejaVuSans 7.0 selectfont
12.8203 3.89219 moveto
/minus glyphshow
18.6855 3.89219 moveto
/one glyphshow
grestore
2 setlinecap
0.69 setgray
gsave
57.6 38.016 357.12 266.112 rectclip
57.6 292.032 m
414.72 292.032 l
stroke
grestore
0 setlinecap
0 setgray
gsave
/o {
gsave
newpath
translate
0.8 setlinewidth
1 setlinejoin

0 setlinecap

-0 0 m
-3.5 0 l

gsave
0 setgray
fill
grestore
stroke
grestore
} bind def
57.6 292.032 o
grestore
gsave
32.6 287.571 translate
0 rotate
/DejaVuSans 10.0 selectfont
0 0.976562 moveto
/one glyphshow
6.3623 0.976562 moveto
/zero glyphshow
/DejaVuSans 7.0 selectfont
12.8203 4.80469 moveto
/zero glyphshow
grestore
0.6 setlinewidth
gsave
/o {
gsave
newpath
translate
0.6 setlinewidth
1 setlinejoin

0 setlinecap

-0 0 m
-2 0 l

gsave
0 setgray
fill
grestore
stroke
grestore
} bind def
57.6 47.3339 o
grestore
gsave
/o {
gsave
newpath
translate
0.6 setlinewidth
1 setlinejoin

0 setlinecap

-0 0 m
-2 0 l

gsave
0 setgray
fill
grestore
stroke
grestore
} bind def
57.6 54.0933 o
grestore
gsave
/o {
gsave
newpath
translate
0.6 setlinewidth
1 setlinejoin

0 setlinecap

-0 0 m
-2 0 l

gsave
0 setgray
fill
grestore
stroke
grestore
} bind def
57.6 59.3364 o
grestore
gsave
/o {
gsave
newpath
translate
0.6 setlinewidth
1 setlinejoin

0 setlinecap

-0 0 m
-2 0 l

gsave
0 setgray
fill
grestore
stroke
grestore
} bind def
57.6 63.6203 o
grestore
gsave
/o {
gsave
newpath
translate
0.6 setlinewidth
1 setlinejoin

0 setlinecap

-0 0 m
-2 0 l

gsave
0 setgray
fill
grestore
stroke
grestore
} bind def
57.6 67.2423 o
grestore
gsave
/o {
gsave
newpath
translate
0.6 setlinewidth
1 setlinejoin

0 setlinecap

-0 0 m
-2 0 l

gsave
0 setgray
fill
grestore
stroke
grestore
} bind def
57.6 70.3798 o
grestore
gsave
/o {
gsave
newpath
translate
0.6 setlinewidth
1 setlinejoin

0 setlinecap

-0 0 m
-2 0 l

gsave
0 setgray
fill
grestore
stroke
grestore
} bind def
57.6 73.1472 o
grestore
gsave
/o {
gsave
newpath
translate
0.6 setlinewidth
1 setlinejoin

0 setlinecap

-0 0 m
-2 0 l

gsave
0 setgray
fill
grestore
stroke
grestore
} bind def
57.6 91.9092 o
grestore
gsave
/o {
gsave
newpath
translate
0.6 setlinewidth
1 setlinejoin

0 setlinecap

-0 0 m
-2 0 l

gsave
0 setgray
fill
grestore
stroke
grestore
} bind def
57.6 101.436 o
grestore
gsave
/o {
gsave
newpath
translate
0.6 setlinewidth
1 setlinejoin

0 setlinecap

-0 0 m
-2 0 l

gsave
0 setgray
fill
grestore
stroke
grestore
} bind def
57.6 108.196 o
grestore
gsave
/o {
gsave
newpath
translate
0.6 setlinewidth
1 setlinejoin

0 setlinecap

-0 0 m
-2 0 l

gsave
0 setgray
fill
grestore
stroke
grestore
} bind def
57.6 113.439 o
grestore
gsave
/o {
gsave
newpath
translate
0.6 setlinewidth
1 setlinejoin

0 setlinecap

-0 0 m
-2 0 l

gsave
0 setgray
fill
grestore
stroke
grestore
} bind def
57.6 117.723 o
grestore
gsave
/o {
gsave
newpath
translate
0.6 setlinewidth
1 setlinejoin

0 setlinecap

-0 0 m
-2 0 l

gsave
0 setgray
fill
grestore
stroke
grestore
} bind def
57.6 121.345 o
grestore
gsave
/o {
gsave
newpath
translate
0.6 setlinewidth
1 setlinejoin

0 setlinecap

-0 0 m
-2 0 l

gsave
0 setgray
fill
grestore
stroke
grestore
} bind def
57.6 124.482 o
grestore
gsave
/o {
gsave
newpath
translate
0.6 setlinewidth
1 setlinejoin

0 setlinecap

-0 0 m
-2 0 l

gsave
0 setgray
fill
grestore
stroke
grestore
} bind def
57.6 127.25 o
grestore
gsave
/o {
gsave
newpath
translate
0.6 setlinewidth
1 setlinejoin

0 setlinecap

-0 0 m
-2 0 l

gsave
0 setgray
fill
grestore
stroke
grestore
} bind def
57.6 146.012 o
grestore
gsave
/o {
gsave
newpath
translate
0.6 setlinewidth
1 setlinejoin

0 setlinecap

-0 0 m
-2 0 l

gsave
0 setgray
fill
grestore
stroke
grestore
} bind def
57.6 155.538 o
grestore
gsave
/o {
gsave
newpath
translate
0.6 setlinewidth
1 setlinejoin

0 setlinecap

-0 0 m
-2 0 l

gsave
0 setgray
fill
grestore
stroke
grestore
} bind def
57.6 162.298 o
grestore
gsave
/o {
gsave
newpath
translate
0.6 setlinewidth
1 setlinejoin

0 setlinecap

-0 0 m
-2 0 l

gsave
0 setgray
fill
grestore
stroke
grestore
} bind def
57.6 167.541 o
grestore
gsave
/o {
gsave
newpath
translate
0.6 setlinewidth
1 setlinejoin

0 setlinecap

-0 0 m
-2 0 l

gsave
0 setgray
fill
grestore
stroke
grestore
} bind def
57.6 171.825 o
grestore
gsave
/o {
gsave
newpath
translate
0.6 setlinewidth
1 setlinejoin

0 setlinecap

-0 0 m
-2 0 l

gsave
0 setgray
fill
grestore
stroke
grestore
} bind def
57.6 175.447 o
grestore
gsave
/o {
gsave
newpath
translate
0.6 setlinewidth
1 setlinejoin

0 setlinecap

-0 0 m
-2 0 l

gsave
0 setgray
fill
grestore
stroke
grestore
} bind def
57.6 178.584 o
grestore
gsave
/o {
gsave
newpath
translate
0.6 setlinewidth
1 setlinejoin

0 setlinecap

-0 0 m
-2 0 l

gsave
0 setgray
fill
grestore
stroke
grestore
} bind def
57.6 181.352 o
grestore
gsave
/o {
gsave
newpath
translate
0.6 setlinewidth
1 setlinejoin

0 setlinecap

-0 0 m
-2 0 l

gsave
0 setgray
fill
grestore
stroke
grestore
} bind def
57.6 200.114 o
grestore
gsave
/o {
gsave
newpath
translate
0.6 setlinewidth
1 setlinejoin

0 setlinecap

-0 0 m
-2 0 l

gsave
0 setgray
fill
grestore
stroke
grestore
} bind def
57.6 209.641 o
grestore
gsave
/o {
gsave
newpath
translate
0.6 setlinewidth
1 setlinejoin

0 setlinecap

-0 0 m
-2 0 l

gsave
0 setgray
fill
grestore
stroke
grestore
} bind def
57.6 216.4 o
grestore
gsave
/o {
gsave
newpath
translate
0.6 setlinewidth
1 setlinejoin

0 setlinecap

-0 0 m
-2 0 l

gsave
0 setgray
fill
grestore
stroke
grestore
} bind def
57.6 221.643 o
grestore
gsave
/o {
gsave
newpath
translate
0.6 setlinewidth
1 setlinejoin

0 setlinecap

-0 0 m
-2 0 l

gsave
0 setgray
fill
grestore
stroke
grestore
} bind def
57.6 225.927 o
grestore
gsave
/o {
gsave
newpath
translate
0.6 setlinewidth
1 setlinejoin

0 setlinecap

-0 0 m
-2 0 l

gsave
0 setgray
fill
grestore
stroke
grestore
} bind def
57.6 229.549 o
grestore
gsave
/o {
gsave
newpath
translate
0.6 setlinewidth
1 setlinejoin

0 setlinecap

-0 0 m
-2 0 l

gsave
0 setgray
fill
grestore
stroke
grestore
} bind def
57.6 232.687 o
grestore
gsave
/o {
gsave
newpath
translate
0.6 setlinewidth
1 setlinejoin

0 setlinecap

-0 0 m
-2 0 l

gsave
0 setgray
fill
grestore
stroke
grestore
} bind def
57.6 235.454 o
grestore
gsave
/o {
gsave
newpath
translate
0.6 setlinewidth
1 setlinejoin

0 setlinecap

-0 0 m
-2 0 l

gsave
0 setgray
fill
grestore
stroke
grestore
} bind def
57.6 254.216 o
grestore
gsave
/o {
gsave
newpath
translate
0.6 setlinewidth
1 setlinejoin

0 setlinecap

-0 0 m
-2 0 l

gsave
0 setgray
fill
grestore
stroke
grestore
} bind def
57.6 263.743 o
grestore
gsave
/o {
gsave
newpath
translate
0.6 setlinewidth
1 setlinejoin

0 setlinecap

-0 0 m
-2 0 l

gsave
0 setgray
fill
grestore
stroke
grestore
} bind def
57.6 270.503 o
grestore
gsave
/o {
gsave
newpath
translate
0.6 setlinewidth
1 setlinejoin

0 setlinecap

-0 0 m
-2 0 l

gsave
0 setgray
fill
grestore
stroke
grestore
} bind def
57.6 275.746 o
grestore
gsave
/o {
gsave
newpath
translate
0.6 setlinewidth
1 setlinejoin

0 setlinecap

-0 0 m
-2 0 l

gsave
0 setgray
fill
grestore
stroke
grestore
} bind def
57.6 280.029 o
grestore
gsave
/o {
gsave
newpath
translate
0.6 setlinewidth
1 setlinejoin

0 setlinecap

-0 0 m
-2 0 l

gsave
0 setgray
fill
grestore
stroke
grestore
} bind def
57.6 283.651 o
grestore
gsave
/o {
gsave
newpath
translate
0.6 setlinewidth
1 setlinejoin

0 setlinecap

-0 0 m
-2 0 l

gsave
0 setgray
fill
grestore
stroke
grestore
} bind def
57.6 286.789 o
grestore
gsave
/o {
gsave
newpath
translate
0.6 setlinewidth
1 setlinejoin

0 setlinecap

-0 0 m
-2 0 l

gsave
0 setgray
fill
grestore
stroke
grestore
} bind def
57.6 289.556 o
grestore
1.5 setlinewidth
2 setlinecap
0.122 0.467 0.706 setrgbcolor
gsave
57.6 38.016 357.12 266.112 rectclip
73.832727 292.032 m
73.952768 247.614494 l
74.279203 240.411227 l
74.376605 239.949431 l
74.49311 238.825 l
74.609612 231.980749 l
74.91756 191.761178 l
74.949903 191.500359 l
74.980233 191.743184 l
75.553931 207.511256 l
75.788947 225.459294 l
75.96707 251.786878 l
76.036262 245.785532 l
76.341373 223.974998 l
76.498848 221.980218 l
76.570598 221.772935 l
76.60807 221.802611 l
76.865716 225.695708 l
77.659976 240.755787 l
77.888214 242.360082 l
77.966601 241.828578 l
78.047688 241.928442 l
78.131782 241.986263 l
78.215876 241.237202 l
78.30347 241.518914 l
78.391071 241.074145 l
78.574602 242.028949 l
78.75814 243.04215 l
78.849909 243.779262 l
79.045674 246.532255 l
79.437217 248.00594 l
79.926645 244.199958 l
80.004954 238.830179 l
80.083263 238.914938 l
80.23988 238.93532 l
80.318188 239.028582 l
80.410977 243.505337 l
80.5037 242.91982 l
80.956734 239.679146 l
81.045497 239.340687 l
81.310226 240.156536 l
82.756208 250.527535 l
83.170022 251.679898 l
83.250928 251.335814 l
83.655522 251.85333 l
84.141022 252.175599 l
84.219591 251.536562 l
84.298094 251.589028 l
84.926445 251.793782 l
86.026012 251.831495 l
86.811435 251.798965 l
86.969805 251.974341 l
87.365763 251.964038 l
87.522056 251.668431 l
88.616038 251.72831 l
89.866313 252.027683 l
91.351058 252.570521 l
92.75769 253.281694 l
93.304681 253.387785 l
93.463052 253.702879 l
94.730014 253.925629 l
95.125972 253.76272 l
95.601083 253.279774 l
95.996976 252.561384 l
96.709675 250.624951 l
97.501526 248.030762 l
98.214225 244.668507 l
99.006077 241.077659 l
99.40197 240.215 l
99.639558 240.109214 l
100.033568 240.296828 l
100.424656 241.394554 l
102.649762 248.795022 l
103.18078 249.870405 l
103.711862 250.474047 l
104.015292 250.667988 l
104.08873 250.044087 l
104.162104 250.079446 l
104.602606 250.234373 l
105.116546 250.147477 l
106.291175 249.709864 l
106.365782 250.068937 l
106.440454 250.040397 l
108.380961 249.747989 l
108.679521 249.532666 l
109.127295 249.213909 l
109.649742 248.862635 l
110.918522 247.886062 l
111.888808 246.865913 l
113.46394 244.267891 l
115.200493 239.987671 l
115.427043 239.09714 l
115.502494 239.027146 l
115.80456 237.837378 l
117.692082 231.640153 l
117.767599 231.573637 l
117.994148 230.916606 l
118.522633 229.754245 l
119.202152 228.336932 l
119.354029 228.35816 l
119.812387 227.335884 l
120.423531 226.532555 l
120.881889 226.359723 l
121.340248 226.383459 l
123.631974 227.422044 l
125.006984 227.822069 l
126.687631 227.804382 l
127.145924 227.699741 l
128.750146 227.215456 l
130.889151 226.19226 l
131.500231 225.823508 l
133.104452 224.853507 l
135.62539 223.275409 l
142.729976 218.763582 l
145.098063 216.802106 l
149.681646 212.579168 l
152.431536 210.213159 l
154.493791 208.69435 l
156.556695 207.453776 l
158.618951 206.482828 l
161.063658 205.598773 l
162.82073 205.194859 l
165.265438 204.626297 l
172.44567 202.762252 l
174.966998 201.906125 l
178.709705 200.366021 l
181.689456 198.929023 l
188.641126 195.088707 l
191.543607 193.447879 l
198.571897 189.849654 l
200.175729 189.516298 l
202.162013 189.009459 l
205.217735 188.002055 l
206.057961 188.013678 l
207.27999 188.327324 l
208.578639 188.714581 l
209.266274 188.783411 l
210.183121 188.701906 l
210.26039 189.150024 l
210.33766 188.960748 l
210.878547 188.942668 l
211.651893 189.004766 l
212.501859 189.247796 l
213.352474 189.639529 l
216.367289 191.647719 l
217.449064 191.890017 l
218.299679 192.082847 l
219.459373 192.718242 l
221.855381 194.949243 l
222.860535 195.990244 l
224.020229 196.766173 l
225.565622 197.352406 l
226.648046 198.270677 l
229.662861 201.351165 l
230.435557 202.20917 l
231.517981 203.126837 l
231.904329 203.274596 l
232.677675 203.729899 l
233.68218 204.634517 l
235.150953 205.996603 l
237.393071 208.338916 l
238.474846 209.47406 l
239.016382 209.843712 l
239.325461 209.963782 l
240.253346 210.711288 l
240.328018 210.023599 l
240.40269 210.112522 l
240.926695 210.656101 l
242.050027 211.623894 l
242.649354 211.919243 l
242.726623 213.124406 l
242.803893 212.779283 l
242.958432 212.846591 l
244.504474 214.439278 l
245.664168 215.714414 l
246.205056 216.043234 l
246.280377 215.44579 l
246.355699 215.506703 l
247.033594 215.88278 l
248.464705 217.474418 l
249.1426 217.822981 l
249.219221 218.297197 l
249.295192 218.157686 l
249.830235 218.302377 l
250.44125 218.719303 l
251.052264 219.104941 l
251.281476 219.207289 l
251.816519 219.838368 l
252.885957 220.957964 l
253.496972 221.299882 l
253.802154 221.238207 l
254.031366 221.253081 l
255.712467 223.156303 l
256.246862 223.214297 l
256.476073 223.22555 l
257.46954 223.734735 l
258.84416 224.139683 l
259.149992 224.473551 l
259.608415 225.094575 l
260.21943 225.576656 l
260.677853 225.569042 l
261.212247 225.320307 l
261.976502 226.282138 l
262.587517 227.16409 l
262.816728 227.250766 l
263.275152 227.110046 l
263.427743 227.111688 l
263.886166 227.336227 l
264.344589 227.310943 l
264.649772 227.203765 l
264.878984 227.120976 l
265.71921 227.099911 l
265.948421 227.219089 l
267.017859 228.473071 l
267.629523 228.649195 l
267.934705 228.422941 l
268.240537 228.252742 l
268.54572 228.344565 l
269.004143 229.016368 l
269.691778 230.057506 l
269.92099 230.168711 l
270.150201 229.944831 l
270.302793 229.793709 l
270.532004 230.034229 l
270.837836 230.045639 l
271.143019 229.958742 l
272.518288 229.057377 l
272.82412 229.110555 l