#           x             T
    -0.118947       347.811
    -0.118121       347.849
    -0.117174        347.89
    -0.116087       347.923
     -0.11484       347.943
    -0.113408        347.95
    -0.111764        347.95
    -0.109877       347.946
    -0.107712       347.937
    -0.105227       347.925
    -0.102374       347.907
   -0.0990995       347.884
   -0.0953416       347.853
   -0.0914285       347.817
   -0.0876191       347.779
   -0.0838095       347.745
        -0.08       347.722
   -0.0761904       347.732
   -0.0723809        347.81
   -0.0685715       348.029
   -0.0649271       348.499
    -0.061624       349.354
    -0.058655       350.744
   -0.0559862       352.792
   -0.0535874       355.541
   -0.0514313       358.915
   -0.0494932       362.715
   -0.0477512       366.712
   -0.0461853       370.685
   -0.0447779       374.438
   -0.0435128       377.822
   -0.0423757       380.734
   -0.0413536       383.107
   -0.0404349       385.034
     -0.03925       386.713
     -0.03775       387.638
     -0.03625       387.394
     -0.03475       386.046
     -0.03325       383.818
     -0.03175       380.968
     -0.03025       377.732
     -0.02875       374.304
     -0.02725       370.834
     -0.02575       367.495
   -0.0243994       364.492
   -0.0231362       361.829
    -0.021743       359.144
   -0.0202065       356.332
   -0.0189203       354.156
   -0.0180315       352.753
   -0.0166427       350.724
   -0.0145812       348.001
    -0.012414       345.491
   -0.0110231       344.083
   -0.0100402       343.159
  -0.00847254       341.819
  -0.00677747       340.604
  -0.00524316       339.721
  -0.00385435       339.097
  -0.00288618       338.758
  -0.00228892       338.584
  -0.00133333       338.416
            0       338.323
   0.00133333       338.392
     0.002289        338.55
   0.00288966       338.721
   0.00386381       339.057
   0.00525697       339.676
   0.00679351       340.555
    0.0084882       341.763
    0.0100473        343.09
    0.0110276       344.007
    0.0124188       345.412
    0.0145859       347.913
    0.0166548       350.638
    0.0180384       352.653
    0.0189282       354.054
    0.0202225       356.238
    0.0217568       359.037
    0.0231456       361.705
    0.0244027        364.35
      0.02575       367.341
      0.02725       370.671
      0.02875       374.136
      0.03025        377.56
      0.03175       380.798
      0.03325       383.656
      0.03475       385.898
      0.03625       387.268
      0.03775       387.538
      0.03925       386.637
    0.0404349       384.973
    0.0413536       383.053
    0.0423757       380.682
    0.0435128       377.772
    0.0447779       374.388
    0.0461853        370.64
    0.0477511       366.674
    0.0494932       362.685
    0.0514312       358.894
    0.0535874       355.528
    0.0559862       352.786
    0.0586549       350.742
     0.061624       349.355
    0.0649271       348.502
    0.0685714       348.032
    0.0723809       347.813
    0.0761904       347.734
         0.08       347.725
    0.0838095       347.746
     0.087619       347.781
    0.0914285       347.818
    0.0953419       347.854
    0.0991002       347.885
     0.102374       347.908
     0.105227       347.925
     0.107713       347.937
     0.109878       347.946
     0.111765       347.951
     0.113408       347.951
      0.11484       347.943
     0.116088       347.924
     0.117175        347.89
     0.118122       347.849
     0.118947       347.811
     0.119665       347.787
