# vtk DataFile Version 2.0
sampleSurface
ASCII
DATASET POLYDATA
POINTS 15978 float
-4.26165e-19 0.000133477 0 -4.18079e-19 -0.000798814 0 -4.33681e-19 0.001 0 -4.09379e-19 -0.00180187
0 -0.00181681 0.000361473 0 0.00181681 0.000361473 0 -0.00181396 -0.000575145 0
0.00181396 -0.000575145 0 -0.00181945 0.00123202 0 0.00181945 0.00123202 0 -0.00181089
-0.00158285 0 0.00181089 -0.00158285 0 -4.00018e-19 -0.00288105 0 -0.00180759 -0.00266704
0 0.00180759 -0.00266704 0 -0.00351565 8.15481e-05 0 0.00351565 8.15481e-05 0
-0.00351186 -0.000939823 0 0.00351186 -0.000939823 0 -0.00351918 0.00103087 0 0.00351918
0.00103087 0 -0.00352245 0.00191322 0 0.00352245 0.00191322 0 -3.89947e-19 -0.00404214
0 -0.00350777 -0.00203871 0 0.00350777 -0.00203871 0 -0.00180405 -0.00383352 0
0.00180405 -0.00383352 0 -0.00350338 -0.00322101 0 0.00350338 -0.00322101 0 -0.005
8.60602e-05 0 0.005 8.60602e-05 0 -0.005 -0.00103629 0 0.005 -0.00103629
0 -0.005 0.00112923 0 0.005 0.00112923 0 -3.79112e-19 -0.00529135 0
-0.00180023 -0.00508853 0 0.00180023 -0.00508853 0 -0.005 0.00209882 0 0.005
0.00209882 0 -0.005 -0.00224382 0 0.005 -0.00224382 0 -0.00349866 -0.00449304
0 0.00349866 -0.00449304 0 -0.005 0.003 0 0.005 0.003 0
-0.005 -0.003543 0 0.005 -0.003543 0 -0.00637208 2.82617e-05 0 0.00639053
4.25732e-05 0 -0.00637208 0.00114892 0 -0.00637208 -0.00117745 0 0.00639053 -0.00116311
0 0.00639053 0.00116321 0 -3.67455e-19 -0.00663538 0 -0.00179612 -0.00643879 0
0.00179612 -0.00643879 0 -0.00637208 0.00219052 0 0.00639053 0.00220479 0 -0.00349357
-0.00586162 0 0.00349357 -0.00586162 0 -0.00637208 -0.00247467 0 0.00639053 -0.00246031
0 -0.005 -0.00494079 0 0.005 -0.00494079 0 -0.00637208 0.00315864 0
0.00639053 0.00317289 0 -0.00637208 -0.00387036 0 0.00639053 -0.00385597 0 -0.00637208
0.00405846 0 0.00639053 0.00407269 0 -0.00778421 -7.99569e-05 0 0.00781802 -5.3679e-05
0 -0.00778421 0.00112388 0 0.00781802 0.00115011 0 -0.00778421 -0.00137517 0
0.00781802 -0.00134884 0 -3.54912e-19 -0.00808142 0 -0.0017917 -0.00789154 0 0.0017917
-0.00789154 0 -0.00778421 0.0022428 0 -0.0034881 -0.00733407 0 0.0034881 -0.00733407
0 0.00781802 0.00226899 0 -0.005 -0.00644467 0 0.005 -0.00644467 0
-0.00778421 -0.00276868 0 0.00781802 -0.0027423 0 -0.00637208 -0.00537197 0 0.00639053
-0.00535755 0 -0.00778421 0.00328278 0 0.00781802 0.00330893 0 -0.00778421 0.00424939
0 -0.00778421 -0.00426796 0 0.00781802 -0.00424152 0 0.00781802 0.00427551 0
-0.00923755 -0.000243565 0 0.00928347 -0.000207818 0 -0.00923755 0.00104957 0 -0.00778421
0.00514782 0 0.00928347 0.00108525 0 0.00781802 0.0051739 0 -0.00923755 -0.00163485
0 0.00928347 -0.00159903 0 -0.00637208 -0.00698755 0 0.00639053 -0.0069731 0
-0.005 -0.0080627 0 0.005 -0.0080627 0 -0.00923755 0.00225148 0 0.00928347
0.0022871 0 -0.00348222 -0.00891827 0 0.00348222 -0.00891827 0 -0.00178695 -0.00945455
0 0.00178695 -0.00945455 0 -3.41418e-19 -0.00963721 0 -0.00923755 -0.00313172 0
-0.00778421 -0.00588103 0 0.00781802 -0.00585453 0 0.00928347 -0.00309583 0 -0.00923755
0.0033686 0 0.00928347 0.00340416 0 -0.00923755 0.00440692 0 0.00928347 0.00444243
0 -0.00923755 -0.00474221 0 0.00928347 -0.00470623 0 -0.00923755 0.00537198 0
-0.0107333 -0.000467921 0 0.00928347 0.00540745 0 -0.0107333 0.000921062 0 0.0107879
-0.000425364 0 0.00639053 -0.00871127 0 -0.00637208 -0.00872575 0 0.0107879 0.000963535
0 -0.00778421 -0.00761653 0 0.00781802 -0.00758997 0 -0.0107333 -0.00196233 0
0.0107879 -0.00191968 0 -0.0107333 0.00221206 0 -0.005 -0.00980352 0 0.005
-0.00980352 0 0.0107879 0.00225445 0 -0.00923755 0.00626897 0 -0.00347589 -0.0106227
0 0.00347589 -0.0106227 0 0.00928347 0.00630439 0 -0.0107333 0.00341198 0
-0.00178183 -0.0111362 0 0.00178183 -0.0111362 0 -0.00923755 -0.00647493 0 0.00928347
-0.00643887 0 -3.26899e-19 -0.0113111 0 -0.0107333 -0.00357015 0 0.0107879 0.00345431
0 0.0107879 -0.00352741 0 -0.0107333 0.00452726 0 0.0107879 0.00456952 0
-0.0107333 -0.00530001 0 0.0107879 -0.00525717 0 -0.0107333 0.00556386 0 0.0107879
0.00560606 0 -0.000743369 0.0122055 0 0.000743369 0.0122055 0 -0.00778421 -0.00948375
0 0.00781802 -0.00945713 0 -0.0122727 0.000733061 0 -0.0122727 -0.000758799 0
0.0123323 -0.000712262 0 0.0123323 0.0007795 0 0.00639053 -0.0105814 0 -0.00637208
-0.0105959 0 -0.00923755 -0.00833916 0 -0.0122727 0.00211968 0 0.00928347 -0.00830301
0 -0.0122727 -0.00236389 0 0.0123323 0.00216603 0 0.0123323 -0.00231725 0
-0.0107333 0.00652734 0 0.0107879 0.00656947 0 -0.005 -0.0116765 0 0.005
-0.0116765 0 -0.0122727 0.00340848 0 0.0123323 0.00345474 0 -0.000741126 0.0128136
0 0.000741126 0.0128136 0 -0.0107333 -0.00716117 0 0.0107879 -0.00711821 0
-0.00346908 -0.0124565 0 0.00346908 -0.0124565 0 -0.0122727 -0.00409081 0 0.0123323
-0.00404405 0 -0.0107333 0.00742284 0 -0.00177633 -0.0129455 0 0.00177633 -0.0129455
0 -0.0122727 0.00460636 0 -3.11279e-19 -0.013112 0 0.0107879 0.00746492 0
-0.002 0.013 0 0.002 0.013 0 0.0123323 0.00465255 0 -0.0007387
0.0134712 0 0.0007387 0.0134712 0 -0.0122727 0.00571974 0 0.0123323 0.00576585
0 -0.0122727 -0.00594879 0 0.0123323 -0.00590191 0 -0.002 0.0135849 0
0.002 0.0135849 0 -0.0138571 0.000479853 0 -0.00923755 -0.0103449 0 0.00928347
-0.0103086 0 0.00781802 -0.011466 0 -0.00778421 -0.0114927 0 -0.0138571 -0.00112242
0 0.0139177 0.000527252 0 0.0139177 -0.00107491 0 -0.0138571 0.0019691 0
-0.0122727 0.00675458 0 0.0139177 0.00201639 0 0.0123323 0.00680062 0 -0.0107333
-0.00916358 0 0.00639053 -0.0125934 0 0.0107879 -0.0091205 0 -0.00637208 -0.012608
0 -0.0138571 -0.0028463 0 0.0139177 -0.00279868 0 -0.000736077 0.0141824 0
0.000736077 0.0141824 0 -0.00319452 0.0138829 0 0.00320133 0.0138879 0 -0.0138571
0.00335328 0 0.0139177 0.00340049 0 -0.002 0.0142174 0 0.002 0.0142174
0 -0.0122727 0.00771641 0 0.0123323 0.00776239 0 -0.005 -0.0136916 0
0.005 -0.0136916 0 -0.0138571 0.00463982 0 -0.0122727 -0.0079478 0 -0.0138571
-0.00470103 0 0.0123323 -0.00790078 0 0.0139177 -0.00465328 0 0.0139177 0.00468694
0 -0.00319452 0.0144678 0 0.00320133 0.0144728 0 -0.00346175 -0.0144295 0
0.00346175 -0.0144295 0 -0.00073324 0.0149515 0 0.00073324 0.0149515 0 -0.0122727
0.00861039 0 -0.00177041 -0.0148921 0 0.00177041 -0.0148921 0 -0.002 0.0149014
0 0.002 0.0149014 0 -0.0138571 0.0058356 0 -2.94473e-19 -0.0150496 0
0.0123323 0.00865631 0 0.0139177 0.00588264 0 -0.0138571 -0.00669653 0 0.0139177
-0.00664864 0 -0.00319452 0.0151003 0 0.00320133 0.0151053 0 -0.0154877 0.000155282
0 -0.0138571 0.00694702 0 -0.00451419 0.0148583 0 0.0045263 0.0148673 0
0.00928347 -0.0124665 0 -0.00923755 -0.0125028 0 0.0155453 0.000200444 0 -0.0154877
-0.00156548 0 0.0139177 0.00699399 0 -0.0154877 0.00175466 0 -0.0107333 -0.011318
0 0.0107879 -0.0112748 0 0.0155453 -0.00152021 0 0.0155453 0.00179972 0
0.00781802 -0.0136273 0 -0.00778421 -0.0136541 0 -0.002 0.0156411 0 0.002
0.0156411 0 -0.000730172 0.0157833 0 0.000730172 0.0157833 0 -0.0154877 0.0032412
0 -0.0154877 -0.00341685 0 0.0155453 0.00328617 0 -0.0122727 -0.0100985 0
0.0155453 -0.00337146 0 0.0123323 -0.0100514 0 -0.0138571 0.00798004 0 0.0139177
0.00802694 0 0.00639053 -0.0147581 0 -0.00637208 -0.0147727 0 -0.00451419 0.0154432
0 0.0045263 0.0154521 0 -0.00319452 0.0157843 0 0.00320133 0.0157893 0
-0.0154877 0.00462288 0 0.0155453 0.00466776 0 -0.0154877 -0.00540874 0 -0.0138571
-0.00884348 0 0.0155453 -0.00536322 0 0.0139177 -0.00879545 0 -0.0138571 0.00894019
0 -0.002 0.0164411 0 0.002 0.0164411 0 0.0139177 0.00898702 0
-0.0154877 0.00590709 0 -0.005 -0.0158596 0 0.005 -0.0158596 0 0.0155453
0.00595189 0 -0.00451419 0.0160757 0 -0.000726854 0.0166828 0 0.000726854 0.0166828
0 0.0045263 0.0160846 0 -0.00319452 0.016524 0 0.00320133 0.016529 0
-0.00345386 -0.0165523 0 0.00345386 -0.0165523 0 -0.0138571 0.0098326 0 -0.00597213
0.0159359 0 0.00598764 0.0159474 0 -0.0154877 0.00710071 0 0.0139177 0.00987937
0 -0.00176404 -0.0169864 0 0.00176404 -0.0169864 0 0.0155453 0.00714543 0
-2.76391e-19 -0.0171343 0 -0.0171658 -0.000247278 0 0.0172162 -0.000207752 0 -0.0171658
0.00147028 0 -0.0154877 -0.0075518 0 0.0155453 -0.00750615 0 0.0172162 0.00150971
0 -0.0171658 -0.00209519 0 0.0172162 -0.00205556 0 0.0107879 -0.0135925 0
-0.0107333 -0.0136359 0 -0.00451419 0.0167597 0 0.0045263 0.0167686 0 -0.002
0.0173062 0 0.002 0.0173062 0 -0.0171658 0.00306667 0 -0.0122727 -0.0124125
0 0.00928347 -0.0147881 0 0.0123323 -0.0123652 0 -0.00923755 -0.0148246 0
0.0172162 0.00310601 0 -0.0154877 0.00821012 0 -0.00597213 0.0165208 0 0.00598764
0.0165323 0 0.0155453 0.00825477 0 -0.00319452 0.017324 0 0.00320133 0.017329
0 -0.0171658 -0.00408336 0 -0.000723266 0.0176555 0 0.000723266 0.0176555 0
0.0172162 -0.00404362 0 -0.0171658 0.00455044 0 0.00781802 -0.0159527 0 -0.00778421
-0.0159796 0 -0.0138571 -0.0111534 0 0.0139177 -0.0111052 0 0.0172162 0.0045897
0 -0.0154877 0.00924127 0 -0.00451419 0.0174994 0 0.0045263 0.0175084 0
0.0155453 0.00928585 0 -0.0171658 0.00592954 0 -0.00597213 0.0171533 0 0.00598764
0.0171648 0 0.0172162 0.00596872 0 0.00639053 -0.0170872 0 -0.00637208 -0.0171018
0 -0.0171658 -0.00622243 0 0.0172162 -0.00618257 0 -0.002 0.0182418 0
0.002 0.0182418 0 -0.0154877 -0.00985753 0 0.0155453 -0.00981172 0 -0.00319452
0.0181891 0 0.00320133 0.0181941 0 -0.0154877 0.0101997 0 0.0155453 0.0102442
0 -0.0171658 0.00721136 0 0.0172162 0.00725047 0 -0.000719385 0.0187075 0
0.000719385 0.0187075 0 -0.00758282 0.0171264 0 0.00759938 0.0171387 0 -0.00597213
0.0178373 0 0.00598764 0.0178488 0 -0.00451419 0.0182994 0 0.0045263 0.0183083
0 -0.005 -0.0181922 0 0.005 -0.0181922 0 -0.018893 -0.00073496 0
-0.018893 0.0011094 0 0.0189314 -0.000704684 0 0.0189314 0.0011396 0 -0.0154877
0.0110905 0 -0.018893 -0.0027193 0 -0.018893 0.00282365 0 -0.0171658 0.00840275
0 0.0189314 -0.00268894 0 0.0155453 0.0111349 0 0.0189314 0.00285377 0
-0.00344538 -0.0188361 0 0.00344538 -0.0188361 0 -0.0171658 -0.00852385 0 0.0172162
0.00844179 0 0.0172162 -0.00848386 0 -0.00758282 0.0177113 0 0.00759938 0.0177235
0 -0.0122727 -0.0149021 0 0.0123323 -0.0148546 0 -0.00175719 -0.0192397 0
[...]
CELL_DATA 15677
FIELD attributes 1
U 3 15677 float
-0.304871 10.2652 0 0.190475 10.9192 0 -0.101143 9.44667 0 0.0315568 10.9901
0 0.118845 10.7323 0 -0.0119271 8.75836 0 0.0455279 11.0075 0
0.0144842 10.9815 0 0.0577131 10.4719 0 0.0115305 8.22934 0 0.0466952
11.0122 0 0.0433907 11.0311 0 0.0260931 10.9286 0 0.0319078 10.1908
0 0.0113234 7.85613 0 0.0440124 11.0135 0 0.0424063 11.0439 0
0.0428082 11.0209 0 0.033238 10.8603 0 0.0213713 9.90294 0 0.00644159
7.61195 0 0.0413775 11.0136 0 0.0404476 11.0462 0 0.0402099 11.0448
0 0.0398952 11.0049 0 0.0328243 10.7692 0 0.0159527 9.63761 0
0.00250532 7.45877 0 0.0386369 11.0131 0 0.0389908 11.0453 0 0.0393857
11.0533 0 0.0385051 11.0445 0 0.0358525 10.9826 0 0.0288599 10.6571
0 0.0121633 9.41248 0 0.000563132 7.36227 0 0.0356118 11.0123 0
0.0373753 11.0435 0 0.0387173 11.056 0 0.0384534 11.0587 0 0.0360556
11.0421 0 0.0318448 10.9528 0 0.0240814 10.5327 0 0.0090226 9.2375
0 1.66068e-05 7.30014 0 0.0323303 11.0113 0 0.0354657 11.0411 0
0.0376286 11.0557 0 0.0378935 11.064 0 0.036125 11.0634 0 0.032922
11.0364 0 0.0284244 10.9174 0 0.0194912 10.3981 0 0.00646104 9.10675
0 -0.000237252 7.25757 0 0.0288547 11.0101 0 0.0333349 11.0382 0
0.0362316 11.054 0 0.0369486 11.0652 0 0.035567 11.0717 0 0.0329703
11.0663 0 0.0298266 11.0289 0 0.0254191 10.8759 0 0.0154654 10.2694
0 0.00440684 9.0119 0 -0.000467921 7.23309 0 0.0252626 11.0089 0
0.0310061 11.0348 0 0.0345752 11.0514 0 0.0357312 11.0644 0 0.0346587
11.0746 0 0.0324186 11.0785 0 0.0297839 11.0688 0 0.026839 11.0213
0 0.0222132 10.8306 0 0.0118441 10.1594 0 0.0026662 8.94598 0
-0.000671781 7.22156 0 0.0215493 11.0077 0 0.0284846 11.0312 0 0.0326518
11.0481 0 0.0342489 11.0623 0 0.0334616 11.0747 0 0.0314745 11.0833
0 0.0291247 11.0853 0 0.0266378 11.0725 0 0.0235519 11.0144 0
0.018518 10.7846 0 0.00844939 10.0706 0 0.00110041 8.90395 0 -0.0010876
7.22357 0 0.0178434 11.0065 0 0.0258763 11.0273 0 0.0304472 11.0442
0 0.0324856 11.0592 0 0.0319797 11.0731 0 0.0301925 11.0844 0
0.0279935 11.0924 0 0.0257177 11.0938 0 0.0231526 11.0784 0 0.0198655
11.009 0 0.0143975 10.7411 0 0.00514067 10.0054 0 -0.000542754 8.88298
0 -0.00170828 7.23887 0 0.0146469 11.0053 0 0.0231914 11.0233 0
0.0279887 11.0398 0 0.0304235 11.0554 0 0.030204 11.0703 0 0.0285886
11.0835 0 0.0264611 11.0948 0 0.0242272 11.1033 0 0.0218257 11.105
0 0.0191302 11.0875 0 0.015675 11.0063 0 0.00992155 10.7052 0
0.00166663 9.96288 0 -0.0022136 8.88109 0 -0.00237537 7.26783 0 0.0120668
11.0043 0 0.0206472 11.0196 0 0.0253115 11.0351 0 0.0280495 11.0508
0 0.0281185 11.0666 0 0.0266579 11.0811 0 0.0245528 11.0946 0
0.0222584 11.107 0 0.019818 11.117 0 0.017227 11.1197 0 0.014386
11.1005 0 0.0107767 11.0078 0 0.00503371 10.6801 0 -0.00191469 9.94218
0 -0.00410348 8.89753 0 -0.00320188 7.31058 0 0.00991263 11.0034 0
0.0183822 11.0164 0 0.0227118 11.0306 0 0.0253686 11.0457 0 0.0257032
11.062 0 0.0243836 11.0776 0 0.0222663 11.0926 0 0.0198402 11.1075
0 0.0172369 11.122 0 0.0145258 11.1342 0 0.0117324 11.1386 0
0.00873489 11.1183 0 0.00507805 11.0155 0 -0.000329408 10.6684 0 -0.0057798
9.94223 0 -0.00619263 8.93127 0 -0.00411889 7.36732 0 0.00824343 11.0027
0 0.0163602 11.0136 0 0.0203623 11.0266 0 0.0226911 11.0407 0
0.0229475 11.0566 0 0.0217447 11.0731 0 0.0195856 11.0893 0 0.0169702
11.1059 0 0.0141096 11.1232 0 0.011132 11.1406 0 0.00813626 11.1559
0 0.00513997 11.1628 0 0.0020645 11.1422 0 -0.00145623 11.0309 0
-0.0061966 10.6712 0 -0.00996906 9.96209 0 -0.00849286 8.98226 0 -0.00511668
7.43783 0 0.00685934 11.0021 0 0.0144575 11.0112 0 0.0182007 11.0231
0 0.020218 11.0362 0 0.0201548 11.0511 0 0.0187261 11.0675 0
0.0164911 11.0848 0 0.0136338 11.1027 0 0.0104312 11.1219 0 0.00706932
11.1424 0 0.00369835 11.1635 0 0.000419816 11.1828 0 -0.00270686 11.1931
0 -0.00570704 11.173 0 -0.00884731 11.0557 0 -0.0126056 10.6898 0
-0.0145154 10.0008 0 -0.0109888 9.04969 0 -0.00618245 7.52192 0 0.00572267
11.0017 0 0.0127703 11.0093 0 0.0161837 11.0201 0 0.0178909 11.0321
0 0.0175464 11.0461 0 0.0156553 11.0617 0 0.0129693 11.0791 0
0.00981484 11.0982 0 0.00618632 11.1188 0 0.00232783 11.1414 0 -0.00156064
11.166 0 -0.00532224 11.1917 0 -0.00881428 11.2157 0 -0.0119274 11.2303
0 -0.0146357 11.212 0 -0.0171238 11.0911 0 -0.0195714 10.7246 0
-0.0194158 10.0578 0 -0.0136734 9.13312 0 -0.00729781 7.61891 0 0.00478951
11.0014 0 0.0112489 11.0078 0 0.0143283 11.0174 0 0.0157124 11.0285
0 0.0150739 11.0414 0 0.0127829 11.0562 0 0.00940034 11.0729 0
0.00550582 11.0922 0 0.0013614 11.114 0 -0.00311121 11.1381 0 -0.00765843
11.165 0 -0.012071 11.1946 0 -0.0161522 11.2258 0 -0.0197106 11.2556
0 -0.0226012 11.2753 0 -0.0247629 11.26 0 -0.0262869 11.1382 0
-0.0270794 10.7757 0 -0.0246507 10.132 0 -0.0165231 9.23174 0 -0.00846359
7.72816 0 0.00404902 11.0011 0 0.00988156 11.0066 0 0.0126383 11.0152
0 0.0136887 11.0252 0 0.0127557 11.0372 0 0.0100638 11.051 0
0.00607482 11.0669 0 0.00117338 11.0855 0 -0.00404202 11.1076 0 -0.00925994
11.133 0 -0.0146203 11.1615 0 -0.0198564 11.1936 0 -0.0247203 11.2291
0 -0.0289682 11.2667 0 -0.0323768 11.303 0 -0.0347841 11.3288 0
-0.0360915 11.3178 0 -0.0363069 11.1977 0 -0.0351038 10.843 0 -0.0302002
10.2228 0 -0.0195227 9.34483 0 -0.00965915 7.84891 0 0.00348106 11.001
0 0.00871513 11.0056 0 0.0110996 11.0133 0 0.0118272 11.0224 0
0.0106033 11.0333 0 0.007525 11.0461 0 0.00294337 11.061 0 -0.00283601
11.0788 0 -0.00943414 11.1002 0 -0.0161066 11.1259 0 -0.0224587 11.1558
0 -0.0287135 11.1898 0 -0.0345659 11.228 0 -0.0397217 11.2703 0
-0.0439064 11.3151 0 -0.0468867 11.3588 0 -0.0484871 11.3916 0 -0.0485862
11.386 0 -0.0471238 11.2698 0 -0.0436023 10.9261 0 -0.0360248 10.3291
0 -0.0226306 9.47131 0 -0.0108541 7.97997 0 0.00304075 11.0008 0
0.0077604 11.0048 0 0.00975607 11.0117 0 0.0101264 11.0199 0 0.0086264
11.0298 0 0.00518514 11.0415 0 4.09393e-05 11.0553 0 -0.00658341 11.0721
0 -0.0143908 11.0926 0 -0.0228983 11.1175 0 -0.031151 11.1478 0
-0.0386577 11.1833 0 -0.0457382 11.2236 0 -0.0520416 11.269 0 -0.0572432
11.3189 0 -0.0610614 11.3717 0 -0.0632611 11.4236 0 -0.0636742 11.464
0 -0.0621761 11.4649 0 -0.058657 11.3547 0 -0.0525102 11.0239 0
-0.0420529 10.4496 0 -0.0257976 9.6099 0 -0.0120349 8.12008 0 0.00269322
11.0007 0 0.00697536 11.0043 0 0.00863906 11.0105 0 0.00864808 11.0178
0 0.00682959 11.0266 0 0.00305795 11.0372 0 -0.00260592 11.0499 0
-0.0100255 11.0655 0 -0.0189901 11.0848 0 -0.0291072 11.1088 0 -0.0397363
11.1382 0 -0.0496551 11.174 0 -0.0582583 11.2161 0 -0.0659964 11.2638
0 -0.0724881 11.3171 0 -0.0774035 11.3755 0 -0.0804677 11.4371 0
-0.0814687 11.4977 0 -0.0802644 11.5464 0 -0.0767485 11.5547 0 -0.0707874
11.4521 0 -0.0617196 11.1358 0 -0.0482264 10.583 0 -0.0289863 9.75927
0 -0.0131903 8.26792 0 0.00241459 11.0006 0 0.00632725 11.0038 0
0.00771637 11.0095 0 0.00742924 11.016 0 0.00528412 11.0238 0 0.00115254
11.0333 0 -0.00497756 11.0448 0 -0.0131274 11.0591 0 -0.0231787 11.077
0 -0.0348344 11.0997 0 -0.047553 11.128 0 -0.0604865 11.1628 0
-0.072082 11.2054 0 -0.0816174 11.2551 0 -0.089736 11.311 0 -0.0960538
11.3732 0 -0.100254 11.4407 0 -0.102097 11.5117 0 -0.101418 11.5814
0 -0.0981285 11.6388 0 -0.0921726 11.6552 0 -0.0833925 11.5615 0
-0.0711238 11.2604 0 -0.0544729 10.728 0 -0.0321606 9.91795 0 -0.0142998
8.4221 0 0.00218816 11.0006 0 0.00578799 11.0035 0 0.00694824 11.0087
0 0.00642968 11.0146 0 0.00402711 11.0215 0 -0.000453903 11.0298 0
-0.00705997 11.0399 0 -0.0158624 11.0528 0 -0.0269119 11.0693 0 -0.0400139
11.0903 0 -0.0547322 11.1172 0 -0.0703227 11.1508 0 -0.0856761 11.1922
0 -0.0988525 11.2425 0 -0.109034 11.3008 0 -0.117141 11.366 0
-0.12281 11.4377 0 -0.125771 11.515 0 -0.125851 11.5957 0 -0.122968
11.6749 0 -0.117107 11.7412 0 -0.108269 11.766 0 -0.096332 11.682
0 -0.0806353 11.3964 0 -0.060713 10.8831 0 -0.035282 10.0844 0
-0.0153521 8.58115 0 0.00200197 11.0005 0 0.00533639 11.0032 0 0.00630502
11.008 0 0.00560614 11.0134 0 0.00301262 11.0196 0 -0.00172863 11.0268
0 -0.00876802 11.0355 0 -0.0182108 11.0468 0 -0.0301541 11.0616 0
-0.0445886 11.0809 0 -0.0611918 11.1059 0 -0.0793318 11.1379 0 -0.0980045
11.1779 0 -0.115792 11.227 0 -0.130325 11.2861 0 -0.140734 11.3541
0 -0.148308 11.4292 0 -0.152745 11.5112 0 -0.153858 11.5986 0
-0.151577 11.6892 0 -0.145922 11.7779 0 -0.136987 11.8533 0 -0.124851
11.8866 0 -0.109443 11.8127 0 -0.0901406 11.5423 0 -0.0668723 11.0465
0 -0.0383176 10.257 0 -0.0163492 8.74369 0 0.00184732 11.0004 0
0.00495584 11.0029 0 0.00576325 11.0074 0 0.00492496 11.0124 0 0.00219274
11.0179 0 -0.00272768 11.0243 0 -0.0100762 11.0317 0 -0.0200767 11.0413
0 -0.0328784 11.0542 0 -0.0485118 11.0715 0 -0.0668588 11.0945 0
-0.0874113 11.1243 0 -0.109281 11.1625 0 -0.13115 11.21 0 -0.151257
11.2678 0 -0.16678 11.3368 0 -0.176857 11.4154 0 -0.183246 11.5012
0 -0.185758 11.5938 0 -0.184331 11.6917 0 -0.179039 11.7922 0
-0.170039 11.8903 0 -0.157535 11.9744 0 -0.141722 12.0162 0 -0.122572
11.9524 0 -0.0995287 11.6968 0 -0.0728886 11.2168 0 -0.0412471 10.4343
0 -0.0172066 8.90859 0 0.00171771 11.0004 0 0.00463329 11.0027 0
0.0053043 11.007 0 0.00435923 11.0115 0 0.00152897 11.0166 0 -0.00350772
11.0221 0 -0.0110568 11.0285 0 -0.021445 11.0365 0 -0.0349737 11.0472
0 -0.0517468 11.0622 0 -0.0716724 11.0829 0 -0.0944685 11.1103 0
-0.119378 11.1461 0 -0.145196 11.1915 0 -0.170247 11.2477 0 -0.192418
11.3154 0 -0.208404 11.3953 0 -0.217419 11.4852 0 -0.221839 11.5823
0 -0.221639 11.6858 0 -0.216933 11.7941 0 -0.207962 11.9045 0
-0.195043 12.0116 0 -0.178512 12.104 0 -0.158677 12.1539 0 -0.135577
12.0999 0 -0.1087 11.8582 0 -0.0787186 11.3922 0 -0.0440021 10.6149
0 -0.0185188 9.07308 0 0.00160826 11.0004 0 0.00435836 11.0026 0
0.00491316 11.0066 0 0.00388747 11.0108 0 0.000990415 11.0154 0 -0.00411446
11.0202 0 -0.0117806 11.0257 0 -0.0224115 11.0323 0 -0.0364388 11.0411
0 -0.0541618 11.0535 0 -0.0755831 11.0713 0 -0.100424 11.096 0
-0.128178 11.129 0 -0.15777 11.1718 0 -0.187631 11.2257 0 -0.215711
11.2917 0 -0.239503 11.3703 0 -0.255236 11.4621 0 -0.262316 11.564
0 -0.263879 11.6727 0 -0.260115 11.7872 0 -0.251353 11.9057 0
-0.238033 12.0255 0 -0.220643 12.1411 0 -0.199666 12.2411 0 -0.175521
12.2985 0 -0.148317 12.2538 0 -0.117583 12.025 0 -0.0842914 11.5715
0 -0.0472142 10.7967 0 -0.0197463 9.26688 0 0.00151517 11.0003 0
0.00412282 11.0024 0 0.00457979 11.0063 0 0.00349235 11.0102 0 0.000552394
11.0144 0 -0.00458447 11.0186 0 -0.0123047 11.0232 0 -0.0230672 11.0286
0 -0.0374008 11.0357 0 -0.0557721 11.0457 0 -0.0784311 11.0602 0
-0.105212 11.0816 0 -0.135577 11.1114 0 -0.168725 11.151 0 -0.203213
11.202 0 -0.237071 11.2656 0 -0.267818 11.3426 0 -0.292603 11.4332
0 -0.307201 11.5375 0 -0.311339 11.6519 0 -0.309062 11.7724 0
-0.300833 11.8977 0 -0.287224 12.0261 0 -0.2689 12.1546 0 -0.246534
12.2779 0 -0.220748 12.3849 0 -0.192065 12.449 0 -0.160681 12.4128
0 -0.126085 12.1958 0 -0.0899909 11.7525 0 -0.0500416 10.9999 0
-0.020069 9.46604 0 0.00143544 11.0003 0 0.00392019 11.0023 0 0.00429281
11.006 0 0.00315986 11.0097 0 0.0001952 11.0135 0 -0.0049469 11.0173
0 -0.0126746 11.0211 0 -0.0234852 11.0255 0 -0.0379781 11.031 0
-0.0567457 11.0388 0 -0.0802504 11.0503 0 -0.108635 11.0677 0 -0.14149
11.0935 0 -0.177929 11.1295 0 -0.216806 11.1769 0 -0.256258 11.2373
0 -0.293856 11.3119 0 -0.326718 11.401 0 -0.351675 11.5044 0
-0.364089 11.622 0 -0.364154 11.7491 0 -0.356983 11.8813 0 -0.34336
12.0171 0 -0.324131 12.1547 0 -0.300196 12.2912 0 -0.27241 12.4213
0 -0.241518 12.5342 0 -0.208156 12.6042 0 -0.172547 12.5757 0
-0.13441 12.3686 0 -0.0954079 11.9549 0 -0.0518844 11.2227 0 -0.0204709
9.66077 0 0.0013666 11.0003 0 0.00374528 11.0022 0 0.00404466 11.0057
0 0.00288015 11.0092 0 -9.69542e-05 11.0127 0 -0.00522488 11.0161 0
-0.0129263 11.0193 0 -0.0237237 11.0227 0 -0.0382655 11.0269 0 -0.0572364
11.0327 0 -0.0812605 11.0415 0 -0.110748 11.0552 0 -0.145667 11.0762
0 -0.185266 11.1074 0 -0.228242 11.1507 0 -0.273041 11.2072 0
-0.317319 11.2784 0 -0.358196 11.3651 0 -0.392412 11.4674 0 -0.416521
11.5844 0 -0.425541 11.7156 0 -0.42031 11.8555 0 -0.407157 11.999
0 -0.387222 12.1447 0 -0.361643 12.2907 0 -0.331555 12.4342 0
-0.297976 12.5702 0 -0.261771 12.688 0 -0.223632 12.7629 0 -0.183982
12.7406 0 -0.142755 12.5624 0 -0.100224 12.1778 0 -0.0539024 11.4416
0 -0.0209015 9.849 0 0.00130731 11.0003 0 0.00359354 11.0021 0
0.00383039 11.0055 0 0.00264323 11.0088 0 -0.000336535 11.0121 0 -0.00543678
11.015 0 -0.013088 11.0177 0 -0.0238283 11.0203 0 -0.0383381 11.0232
0 -0.0573674 11.0273 0 -0.0816605 11.0337 0 -0.111833 11.044 0
-0.148186 11.0605 0 -0.190424 11.0859 0 -0.237369 11.1237 0 -0.287209
11.1757 0 -0.337925 11.2427 0 -0.386681 11.3259 0 -0.430149 11.4259
0 -0.464726 11.5422 0 -0.486777 11.6733 0 -0.491072 11.8183 0
-0.479261 11.9708 0 -0.459034 12.1251 0 -0.431912 12.2798 0 -0.399323
12.4333 0 -0.362617 12.5828 0 -0.322967 12.7235 0 -0.281304 12.8452
0 -0.238449 12.9235 0 -0.195689 12.9256 0 -0.150673 12.7761 0
-0.104832 12.3975 0 -0.0558427 11.6542 0 -0.02126 10.0293 0 0.00346084
11.0021 0 0.00123561 11.0003 0 0.00364376 11.0053 0 0.00244151 11.0085
0 -0.000533516 11.0115 0 -0.00559709 11.0141 0 -0.0131822 11.0163 0
-0.0238348 11.0181 0 -0.0382548 11.02 0 -0.0572362 11.0226 0 -0.0816096
11.0268 0 -0.112146 11.0341 0 -0.149405 11.0464 0 -0.193497 11.0664
0 -0.243791 11.0974 0 -0.298565 11.143 0 -0.355407 11.205 0
-0.411823 11.2838 0 -0.464465 11.3804 0 -0.509585 11.4948 0 -0.543311
11.6258 0 -0.561933 11.7714 0 -0.560078 11.9301 0 -0.540385 12.0946
0 -0.512028 12.2589 0 -0.476912 12.4218 0 -0.436738 12.5816 0
-0.393054 12.7359 0 -0.347131 12.8802 0 -0.299983 13.0042 0 -0.253824
13.1038 0 -0.20714 13.1299 0 -0.157887 12.9872 0 -0.109005 12.6116
0 -0.0575025 11.8587 0 -0.0215279 10.2013 0 0.00347832 11.0052 0
0.00330485 11.002 0 0.00114881 11.0002 0 0.00226819 11.0082 0 -0.000695859
11.011 0 -0.00571695 11.0133 0 -0.0132261 11.015 0 -0.0237709 11.0163
0 -0.0380613 11.0172 0 -0.0569188 11.0184 0 -0.081234 11.0207 0
-0.111891 11.0252 0 -0.149647 11.0338 0 -0.194935 11.0488 0 -0.247616
11.0732 0 -0.306602 11.1109 0 -0.369514 11.1657 0 -0.433294 11.2392
0 -0.494937 11.3313 0 -0.550602 11.4425 0 -0.596185 11.5721 0
-0.627652 11.7184 0 -0.641344 11.8786 0 -0.631858 12.0506 0 -0.603003
12.2265 0 -0.56553 12.3998 0 -0.521708 12.5696 0 -0.473488 12.7345
0 -0.422552 12.8925 0 -0.370261 13.0389 0 -0.319515 13.1829 0
-0.269145 13.303 0 -0.217457 13.3319 0 -0.164342 13.1934 0 -0.112584
12.8183 0 -0.0588708 12.0544 0 -0.0216976 10.3645 0 0.00211398 11.0079
0 0.00329637 11.005 0 0.00310757 11.0019 0 0.00106562 11.0002 4.27026e-19
-0.000831413 11.0105 0 -0.00580495 11.0126 0 -0.0132328 11.014 0 -0.0236581
11.0146 0 -0.0377927 11.0148 0 -0.0564741 11.0148 0 -0.0806317 11.0153
0 -0.11123 11.0174 0 -0.149173 11.0226 0 -0.195144 11.033 0
-0.249398 11.0514 0 -0.311433 11.0814 0 -0.3796 11.127 0 -0.450773
11.1926 0 -0.521159 11.2791 0 -0.587272 11.3858 0 -0.644824 11.5127
0 -0.68945 11.6582 0 -0.717078 11.82 0 -0.724245 11.9946 0
-0.705646 12.1794 0 -0.666412 12.3656 0 -0.618934 12.5468 0 -0.565815
12.7222 0 -0.50919 12.8911 0 -0.450842 13.0512 0 -0.394566 13.2171
0 -0.339228 13.3802 0 -0.282912 13.4999 0 -0.226678 13.5294 0
-0.169929 13.3928 0 -0.115593 13.0168 0 -0.059966 12.2407 0 -0.0217728
10.5185 0 -0.000954863 11.0102 0 0.00196253 11.0076 0 0.00308089 11.0047
1.86951e-18 0.00291636 11.0017 -1.35202e-18 0.000985593 11.0002 -8.66643e-19 -0.00586942 11.012 0
-0.0132118 11.013 0 -0.0235121 11.0132 0 -0.0374761 11.0126 0 -0.0559472
11.0116 0 -0.0798785 11.0106 0 -0.110289 11.0105 0 -0.14819 11.0127
0 -0.194452 11.019 0 -0.24964 11.0319 0 -0.313732 11.0547 0
-0.385766 11.0913 0 -0.463436 11.1464 0 -0.54273 11.2242 0 -0.619103
11.3252 0 -0.688631 11.4479 0 -0.746666 11.5914 0 -0.788702 11.7534
0 -0.810779 11.9308 0 -0.809784 12.1193 0 -0.780628 12.3158 0
-0.729899 12.5112 0 -0.671661 12.6989 0 -0.608774 12.8788 0 -0.543511
13.05 0 -0.480677 13.2296 0 -0.41931 13.4142 0 -0.356985 13.5754
0 -0.295204 13.6927 0 -0.234715 13.7207 0 -0.174672 13.5846 0
-0.118074 13.2063 0 -0.0608141 12.4172 0 -0.0217659 10.6633 0 -0.00593244
11.0115 0 -0.00103767 11.0097 -3.78454e-18 0.00179469 11.0071 -1.96846e-18 0.00287125 11.0044
9.49074e-19 0.0027285 11.0016 -9.14279e-19 0.000908784 11.0002 0 -0.013172 11.0122 0
-0.0233439 11.0119 0 -0.0371311 11.0107 0 -0.0553724 11.0087 0 -0.0790324
11.0064 0 -0.109165 11.0044 0 -0.146856 11.0039 0 -0.193117 11.0065
0 -0.24875 11.0144 0 -0.314114 11.0306 0 -0.388818 11.0589 0
-0.471353 11.1035 0 -0.558607 11.1695 0 -0.645595 11.2613 0 -0.727019
11.3784 0 -0.798611 11.5182 0 -0.855472 11.679 0 -0.893103 11.8577
0 -0.907829 12.0503 0 -0.897041 12.252 0 -0.855973 12.4592 0
-0.792774 12.6625 0 -0.723163 12.8553 0 -0.650178 13.038 0 -0.579821
13.2289 0 -0.511245 13.4271 0 -0.441675 13.6093 0 -0.372852 13.7667
0 -0.305963 13.8796 0 -0.241587 13.9049 0 -0.17863 13.768 0
-0.120074 13.3863 0 -0.0614453 12.5838 0 -0.0216914 10.799 0 -0.0131458
11.0114 0 -0.00590015 11.0108 7.96521e-18 -0.00108671 11.0091 0 0.0016337 11.0067
1.99711e-18 0.00266869 11.0042 5.85068e-22 0.00254453 11.0015 0 0.00083518 11.0002 0
-0.0231626 11.0108 0 -0.0367705 11.009 0 -0.0547745 11.0062 0 -0.0781373
11.0027 0 -0.107933 10.999 0 -0.145298 10.9961 0 -0.191343 10.9954
0 -0.247052 10.9988 0 -0.313081 11.0091 0 -0.389501 11.0296 0
-0.475473 11.0645 0 -0.568791 11.1187 0 -0.665435 11.1973 0 -0.759374
11.3046 0 -0.84459 11.4392 0 -0.916602 11.5971 0 -0.970406 11.7757
0 -1.00169 11.9711 0 -1.00723 12.1784 0 -0.985061 12.3921 0
-0.930854 12.6087 0 -0.85438 12.8184 0 -0.772944 13.0147 0 -0.694128
13.2174 0 -0.617204 13.4272 0 -0.53898 13.6227 0 -0.461687 13.8005
0 -0.386799 13.9523 0 -0.315212 14.0598 0 -0.247373 14.0813 0
-0.18187 13.9425 0 -0.121644 13.5567 0 -0.0618899 12.7405 0 -0.0215618
10.9256 0 -0.0230157 11.0098 0 -0.0129474 11.0106 5.02852e-22 -0.00574929 11.01
0 -0.00113363 11.0085 -2.10165e-18 0.00148161 11.0063 4.18609e-22 0.00247337 11.004 0
0.00236452 11.0014 0 0.000764772 11.0001 0 -0.0364038 11.0075 0 -0.0541687
11.004 0 -0.0772247 10.9994 0 -0.106649 10.9943 0 -0.143608 10.9892
0 -0.189286 10.9856 0 -0.244799 10.985 0 -0.311032 10.9898 0
-0.388424 11.0032 0 -0.476685 11.0291 0 -0.574385 11.0722 0 -0.678516
11.1375 0 -0.784052 11.2305 0 -0.883856 11.3549 0 -0.971276 11.5083
0 -1.04179 11.6851 0 -1.09048 11.8817 0 -1.1134 12.0934 0
-1.10793 12.3145 0 -1.0729 12.539 0 -1.00448 12.7635 0 -0.914104
12.9777 0 -0.825951 13.1948 0 -0.739555 13.4167 0 -0.651256 13.6238
0 -0.563857 13.8147 0 -0.479335 13.9862 0 -0.398863 14.1314 0
-0.323049 14.2326 0 -0.252163 14.2494 0 -0.184461 14.1079 0 -0.122836
13.7174 0 -0.0621742 12.8875 0 -0.0213883 11.0437 0 -0.0360992 11.0062
0 -0.0225903 11.0087 -4.405e-18 -0.0125023 11.0096 0 -0.0056031 11.0092 0
-0.00116728 11.0079 6.39313e-18 0.00133834 11.006 0 0.00228513 11.0037 0 0.00218863
11.0013 1.90515e-18 0.000697568 11.0001 0 -0.0535649 11.002 0 -0.0763129 10.9965
0 -0.105352 10.99 0 -0.14186 10.9831 0 -0.187068 10.9769 0
-0.24219 10.9727 0 -0.308284 10.9727 0 -0.386074 10.9797 0 -0.475719
10.9973 0 -0.576437 11.0299 0 -0.686099 11.0826 0 -0.800785 11.1609
0 -0.914374 11.2699 0 -1.01861 11.413 0 -1.10633 11.5863 0
-1.17321 11.7824 0 -1.21459 11.997 0 -1.22709 12.2242 0 -1.20888
12.4579 0 -1.15966 12.6919 0 -1.07613 12.9223 0 -0.977901 13.1582
0 -0.880925 13.3952 0 -0.781072 13.6147 0 -0.681877 13.8169 0
-0.585868 14.0013 0 -0.49467 14.1656 0 -0.409153 14.3031 0 -0.32959
14.3974 0 -0.256056 14.4089 0 -0.18648 14.2641 0 -0.123698 13.8684
0 -0.0623236 13.0249 0 -0.0211814 11.1534 0 -0.05306 11.0003 0
-0.0353711 11.0047 0 -0.0217334 11.0074 -4.81399e-18 -0.0120739 11.0086 -4.64581e-18 -0.00543756
11.0085 -8.96139e-18 -0.00118758 11.0074 0 0.00120395 11.0056 -4.16189e-18 0.00210419 11.0035
-4.00853e-18 0.00201682 11.0013 1.92931e-18 0.000633423 11.0001 0 -0.0754125 10.994 0
-0.104066 10.9863 0 -0.140104 10.9777 0 -0.184779 10.9691 0 -0.239375
10.9617 0 -0.30508 10.9574 0 -0.38284 10.9586 0 -0.473167 10.9687
0 -0.575814 10.9917 0 -0.6894 11.0326 0 -0.810991 11.0967 0