#           x             T
    -0.118947       349.901
    -0.118121       349.896
    -0.117174        349.89
    -0.116087       349.885
     -0.11484       349.881
    -0.113408       349.878
    -0.111764       349.876
    -0.109877       349.875
    -0.107712       349.875
    -0.105227       349.875
    -0.102374       349.875
   -0.0990995       349.876
   -0.0953416       349.879
   -0.0914285       349.885
   -0.0876191       349.896
   -0.0838095       349.918
        -0.08       349.959
   -0.0761904       350.038
   -0.0723809       350.192
   -0.0685715       350.488
   -0.0649271       351.023
    -0.061624       351.904
    -0.058655       353.245
   -0.0559862        355.13
   -0.0535874       357.581
   -0.0514313       360.549
   -0.0494932       363.936
   -0.0477512       367.608
   -0.0461853       371.406
   -0.0447779       375.151
   -0.0435128       378.665
   -0.0423757       381.799
   -0.0413536       384.455
   -0.0404349       386.744
     -0.03925       389.099
     -0.03775       391.406
     -0.03625       393.266
     -0.03475       394.633
     -0.03325       395.597
     -0.03175       396.247
     -0.03025        396.66
     -0.02875         396.9
     -0.02725       397.016
     -0.02575       397.048
   -0.0243994       397.027
   -0.0231362       396.973
    -0.021743       396.893
   -0.0202065        396.79
   -0.0189203       396.698
   -0.0180315       396.634
   -0.0166427       396.534
   -0.0145812       396.392
    -0.012414       396.258
   -0.0110231       396.182
   -0.0100402       396.135
  -0.00847254       396.073
  -0.00677747       396.029
  -0.00524316       396.003
  -0.00385435           396
  -0.00288618       396.009
  -0.00228892        396.02
  -0.00133333        396.05
            0       396.113
   0.00133333       396.198
     0.002289       396.274
   0.00288966       396.334
   0.00386381        396.44
   0.00525697       396.616
   0.00679351       396.841
    0.0084882       397.076
    0.0100473       397.284
    0.0110276       397.402
    0.0124188       397.544
    0.0145859       397.707
    0.0166548       397.762
    0.0180384       397.778
    0.0189282       397.781
    0.0202225       397.779
    0.0217568       397.773
    0.0231456       397.776
    0.0244027       397.784
      0.02575       397.801
      0.02725       397.835
      0.02875       397.889
      0.03025        397.96
      0.03175       398.042
      0.03325       398.129
      0.03475       398.197
      0.03625       398.188
      0.03775       397.956
      0.03925        397.32
    0.0404349       396.323
    0.0413536       395.114
    0.0423757       393.442
    0.0435128       391.079
    0.0447779       387.848
    0.0461853       383.655
    0.0477511       378.589
    0.0494932       372.988
    0.0514312       367.354
    0.0535874       362.206
    0.0559862       357.949
    0.0586549       354.781
     0.061624       352.657
    0.0649271       351.344
    0.0685714       350.594
    0.0723809       350.204
    0.0761904       350.014
         0.08       349.924
    0.0838095       349.881
     0.087619       349.862
    0.0914285       349.854
    0.0953419       349.851
    0.0991002        349.85
     0.102374       349.851
     0.105227       349.852
     0.107713       349.853
     0.109878       349.855
     0.111765       349.856
     0.113408       349.858
      0.11484       349.861
     0.116088       349.866
     0.117175       349.872
     0.118122       349.878
     0.118947       349.882
     0.119665       349.886
