# Forces      
# CofR        : (0.000000e+00 0.000000e+00 0.000000e+00)
# Time        forces(pressure viscous)	moments(pressure viscous)
0             	((0.000000e+00 0.000000e+00 0.000000e+00) (0.000000e+00 -3.273416e-02 0.000000e+00)) ((0.000000e+00 0.000000e+00 0.000000e+00) (0.000000e+00 0.000000e+00 -1.409463e-18))
0.000119048   	((3.222530e-06 1.311576e+00 3.076305e-17) (-2.086480e-07 -2.389497e-03 -6.639500e-20)) ((3.985004e-19 -3.747506e-20 -2.086272e-07) (-1.875021e-22 2.416096e-21 1.929809e-08))
0.000260204   	((9.148752e-07 7.916616e-02 1.089643e-19) (-1.578069e-07 -4.932403e-04 -2.027634e-22)) ((2.416492e-21 4.400284e-21 -2.521580e-08) (-7.577865e-24 -6.105523e-24 1.686131e-08))
0.000428132   	((-4.091982e-07 7.013718e-02 8.346061e-20) (-1.066082e-07 -2.694972e-04 -9.364726e-23)) ((1.856968e-21 3.861215e-21 4.229073e-08) (-5.620115e-24 -6.636402e-24 1.343160e-08))
0.000627546   	((-6.877790e-07 6.408361e-02 6.949464e-20) (-2.855234e-08 -1.834646e-04 4.625490e-23)) ((1.531560e-21 3.487773e-21 5.838315e-08) (-2.705100e-24 -7.752152e-24 6.659929e-09))
0.000861857   	((-3.863414e-07 5.945959e-02 6.049714e-20) (-2.674525e-08 -1.652467e-04 1.280852e-22)) ((1.320306e-21 3.200858e-21 2.667042e-08) (-1.242531e-24 -9.265854e-24 4.382003e-09))
0.00113877    	((-1.135350e-09 5.565699e-02 5.440176e-20) (-1.078280e-07 -1.590992e-04 1.782076e-22)) ((1.180724e-21 2.969059e-21 -1.292858e-08) (-5.749249e-25 -1.048457e-23 5.752751e-09))
0.00146696    	((2.462510e-07 5.245710e-02 5.024507e-20) (-1.416457e-07 -1.561246e-04 1.622671e-22)) ((1.087088e-21 2.777186e-21 -3.060142e-08) (-1.569597e-24 -1.099664e-23 4.644314e-09))
0.00185483    	((2.436011e-07 4.970113e-02 4.747536e-20) (-1.137759e-07 -1.554001e-04 1.238375e-22)) ((1.026871e-21 2.616360e-21 -3.268931e-08) (-3.074089e-24 -1.220882e-23 3.083871e-09))
0.00228352    	((1.892174e-07 4.742578e-02 4.580377e-20) (-9.141175e-08 -1.584135e-04 9.659951e-23)) ((9.921118e-22 2.485891e-21 -2.725367e-08) (-3.872145e-24 -1.169578e-23 2.931290e-09))
0.00271222    	((1.924682e-07 4.566586e-02 4.489389e-20) (-8.380458e-08 -1.607998e-04 6.845781e-23)) ((9.746707e-22 2.386906e-21 -2.333190e-08) (-4.219085e-24 -1.014347e-23 3.263720e-09))
0.00314091    	((1.954827e-07 4.425385e-02 4.437171e-20) (-8.988493e-08 -1.625509e-04 6.457343e-23)) ((9.658866e-22 2.308558e-21 -2.139445e-08) (-4.010293e-24 -9.482929e-24 3.611130e-09))
0.00359818    	((1.779314e-07 4.303665e-02 4.406156e-20) (-7.941859e-08 -1.644096e-04 2.977957e-23)) ((9.619341e-22 2.241793e-21 -1.919712e-08) (-4.821305e-24 -9.034957e-24 3.547134e-09))
0.00405545    	((2.463684e-07 4.202477e-02 4.392377e-20) (-8.974069e-08 -1.653740e-04 3.180993e-23)) ((9.618747e-22 2.186936e-21 -2.024322e-08) (-4.490499e-24 -8.244332e-24 4.136070e-09))
0.00451273    	((2.911322e-07 4.116982e-02 4.388106e-20) (-7.916682e-08 -1.657589e-04 -1.218201e-23)) ((9.636853e-22 2.140603e-21 -1.953262e-08) (-5.316729e-24 -7.779838e-24 3.935837e-09))
0.00497       	((3.261811e-07 4.044046e-02 4.388974e-20) (-7.813191e-08 -1.660503e-04 -2.937225e-23)) ((9.663612e-22 2.100817e-21 -1.902644e-08) (-5.546018e-24 -7.866053e-24 4.235281e-09))
0.00542727    	((3.612281e-07 3.981578e-02 4.391557e-20) (-7.781148e-08 -1.662553e-04 -2.105906e-23)) ((9.690395e-22 2.066672e-21 -1.816119e-08) (-5.129572e-24 -7.155245e-24 4.378473e-09))
0.00588455    	((3.949919e-07 3.927674e-02 4.395442e-20) (-8.028916e-08 -1.664026e-04 -4.461532e-23)) ((9.716438e-22 2.037089e-21 -1.794370e-08) (-5.519157e-24 -7.687490e-24 4.498926e-09))
0.00634182    	((3.584921e-07 3.881108e-02 4.398845e-20) (-8.870313e-08 -1.664392e-04 -7.991474e-23)) ((9.738487e-22 2.011352e-21 -1.638087e-08) (-6.094009e-24 -7.173110e-24 4.534823e-09))
0.00679909    	((4.211143e-07 3.840861e-02 4.401885e-20) (-7.500838e-08 -1.664144e-04 -7.366693e-23)) ((9.757335e-22 1.989008e-21 -1.656723e-08) (-5.951953e-24 -6.780946e-24 4.392138e-09))
0.00725636    	((3.885678e-07 3.805701e-02 4.403683e-20) (-8.635796e-08 -1.663606e-04 -5.711175e-23)) ((9.771095e-22 1.969412e-21 -1.494999e-08) (-5.537108e-24 -6.988354e-24 4.547436e-09))
0.00771364    	((3.562398e-07 3.775086e-02 4.404251e-20) (-8.508482e-08 -1.662715e-04 -9.862059e-23)) ((9.780227e-22 1.952209e-21 -1.464316e-08) (-6.342445e-24 -6.525462e-24 4.587295e-09))
0.00817091    	((3.618378e-07 3.748248e-02 4.404551e-20) (-8.860121e-08 -1.661746e-04 -1.077707e-22)) ((9.786958e-22 1.937105e-21 -1.475345e-08) (-6.467616e-24 -6.315840e-24 4.649846e-09))
0.00862818    	((3.732224e-07 3.724787e-02 4.404501e-20) (-9.588575e-08 -1.660687e-04 -1.046544e-22)) ((9.791560e-22 1.923845e-21 -1.512339e-08) (-6.353536e-24 -6.725508e-24 4.781769e-09))
0.00908545    	((3.752192e-07 3.704766e-02 4.406511e-20) (-1.007944e-07 -1.659907e-04 -9.773908e-23)) ((9.798135e-22 1.912460e-21 -1.511429e-08) (-6.224452e-24 -6.281401e-24 4.879406e-09))
0.00954273    	((3.539760e-07 3.686952e-02 4.407534e-20) (-9.174630e-08 -1.659013e-04 -4.199731e-23)) ((9.801944e-22 1.902265e-21 -1.463853e-08) (-5.227181e-24 -7.483963e-24 4.738551e-09))
0.01          	((3.614282e-07 3.671213e-02 4.408511e-20) (-9.899447e-08 -1.658213e-04 -9.184428e-23)) ((9.805083e-22 1.893257e-21 -1.477221e-08) (-6.101742e-24 -6.877894e-24 4.890225e-09))
0.0104545     	((3.828350e-07 3.657247e-02 4.408930e-20) (-9.512676e-08 -1.657226e-04 -1.047186e-22)) ((9.806810e-22 1.885283e-21 -1.487769e-08) (-6.273088e-24 -7.112902e-24 4.894797e-09))
0.0109091     	((3.730853e-07 3.644781e-02 4.409220e-20) (-9.780733e-08 -1.656614e-04 -2.241871e-23)) ((9.807860e-22 1.878185e-21 -1.394982e-08) (-4.836580e-24 -7.001368e-24 5.006532e-09))
0.0113636     	((2.966184e-07 3.633582e-02 4.408655e-20) (-1.011949e-07 -1.656134e-04 -5.008456e-23)) ((9.807023e-22 1.871741e-21 -1.373564e-08) (-5.303307e-24 -6.699597e-24 5.002753e-09))
0.0118182     	((3.377771e-07 3.623534e-02 4.408251e-20) (-1.024351e-07 -1.655715e-04 -1.120961e-22)) ((9.806170e-22 1.865968e-21 -1.378546e-08) (-6.329098e-24 -6.948162e-24 5.049851e-09))
0.0122727     	((3.285055e-07 3.614534e-02 4.407777e-20) (-9.657442e-08 -1.655344e-04 -1.127912e-22)) ((9.805055e-22 1.860809e-21 -1.404441e-08) (-6.441032e-24 -6.798427e-24 4.959927e-09))
0.0127273     	((3.119539e-07 3.606413e-02 4.407205e-20) (-1.018832e-07 -1.655057e-04 -1.805002e-22)) ((9.803529e-22 1.856121e-21 -1.381350e-08) (-7.505606e-24 -7.254221e-24 5.014703e-09))
0.0131818     	((3.106954e-07 3.599166e-02 4.406792e-20) (-1.011366e-07 -1.654791e-04 -1.639241e-22)) ((9.802161e-22 1.851941e-21 -1.384704e-08) (-7.251154e-24 -6.802981e-24 5.005746e-09))
0.0136364     	((3.190617e-07 3.592653e-02 4.406366e-20) (-1.018880e-07 -1.654544e-04 -1.416439e-22)) ((9.800686e-22 1.848183e-21 -1.373159e-08) (-6.914804e-24 -6.712786e-24 5.029928e-09))
0.0140909     	((3.255077e-07 3.586799e-02 4.406278e-20) (-9.979772e-08 -1.654350e-04 -9.240887e-23)) ((9.799733e-22 1.844819e-21 -1.282910e-08) (-5.938520e-24 -6.874486e-24 5.036234e-09))
0.0145455     	((3.093983e-07 3.581559e-02 4.405896e-20) (-1.045579e-07 -1.654134e-04 -6.133249e-23)) ((9.798158e-22 1.841762e-21 -1.204296e-08) (-5.449388e-24 -7.231073e-24 5.116390e-09))
0.015         	((2.714020e-07 3.576910e-02 4.405680e-20) (-1.060794e-07 -1.653973e-04 -1.120817e-22)) ((9.796934e-22 1.839064e-21 -1.214847e-08) (-6.391964e-24 -6.917795e-24 5.106281e-09))
0.0154545     	((2.863022e-07 3.572774e-02 4.405690e-20) (-1.060827e-07 -1.653814e-04 -1.305544e-22)) ((9.796054e-22 1.836641e-21 -1.217465e-08) (-6.636873e-24 -7.087954e-24 5.119571e-09))
0.0159091     	((2.683841e-07 3.569115e-02 4.405753e-20) (-1.043674e-07 -1.653685e-04 -1.753091e-22)) ((9.795262e-22 1.834500e-21 -1.205894e-08) (-7.513280e-24 -6.475687e-24 5.055188e-09))
0.0163636     	((2.767806e-07 3.565927e-02 4.405995e-20) (-1.096899e-07 -1.653531e-04 -1.404173e-22)) ((9.794836e-22 1.832621e-21 -1.187495e-08) (-6.821659e-24 -7.045921e-24 5.102254e-09))
0.0168182     	((2.756164e-07 3.563161e-02 4.406316e-20) (-1.077842e-07 -1.653449e-04 -1.586447e-22)) ((9.794515e-22 1.830974e-21 -1.117812e-08) (-7.131009e-24 -6.796447e-24 5.067175e-09))
0.0172727     	((2.629582e-07 3.560810e-02 4.406798e-20) (-1.022490e-07 -1.653408e-04 -1.083964e-22)) ((9.794644e-22 1.829567e-21 -1.025467e-08) (-6.158103e-24 -6.750681e-24 4.975646e-09))
0.0177273     	((2.844548e-07 3.558817e-02 4.407498e-20) (-1.054438e-07 -1.653283e-04 -1.583302e-22)) ((9.795095e-22 1.828365e-21 -1.021595e-08) (-7.124501e-24 -6.482534e-24 5.049220e-09))
0.0181818     	((2.161168e-07 3.557174e-02 4.408072e-20) (-1.118244e-07 -1.653177e-04 -1.603920e-22)) ((9.795281e-22 1.827346e-21 -9.512728e-09) (-7.220199e-24 -6.438941e-24 5.078022e-09))
0.0186364     	((2.348636e-07 3.555893e-02 4.408976e-20) (-1.108780e-07 -1.653094e-04 -7.612328e-23)) ((9.796151e-22 1.826537e-21 -9.167439e-09) (-5.695162e-24 -7.066647e-24 5.091724e-09))
0.0190909     	((1.924993e-07 3.554945e-02 4.410080e-20) (-1.096108e-07 -1.652964e-04 -1.409143e-22)) ((9.797458e-22 1.825915e-21 -8.187237e-09) (-6.823436e-24 -6.820296e-24 5.036667e-09))
0.0195455     	((2.680248e-07 3.554275e-02 4.411563e-20) (-1.041775e-07 -1.652853e-04 -1.202551e-22)) ((9.799416e-22 1.825482e-21 -8.021859e-09) (-6.397624e-24 -6.438521e-24 5.059551e-09))
0.02          	((2.508354e-07 3.553900e-02 4.413140e-20) (-1.130336e-07 -1.652749e-04 -1.209243e-22)) ((9.801542e-22 1.825222e-21 -6.979807e-09) (-6.369250e-24 -6.471920e-24 5.224395e-09))
0.0204545     	((1.863722e-07 3.553775e-02 4.414636e-20) (-1.103042e-07 -1.652531e-04 -1.092165e-22)) ((9.803497e-22 1.825062e-21 -6.000007e-09) (-6.161162e-24 -6.514809e-24 5.140689e-09))
0.0209091     	((1.544851e-07 3.553898e-02 4.416178e-20) (-1.081490e-07 -1.652400e-04 -1.802759e-22)) ((9.805459e-22 1.825057e-21 -6.553790e-09) (-7.463477e-24 -6.693311e-24 5.056439e-09))
0.0213636     	((1.449503e-07 3.554251e-02 4.418161e-20) (-1.086603e-07 -1.652197e-04 -1.489826e-22)) ((9.808205e-22 1.825201e-21 -5.471799e-09) (-6.999734e-24 -6.401011e-24 5.022723e-09))
0.0218182     	((1.359031e-07 3.554804e-02 4.420324e-20) (-1.079822e-07 -1.652018e-04 -1.716973e-22)) ((9.811191e-22 1.825467e-21 -4.492355e-09) (-7.378332e-24 -6.405999e-24 4.921563e-09))
0.0222727     	((1.887075e-07 3.555545e-02 4.422912e-20) (-1.085248e-07 -1.651877e-04 -1.290135e-22)) ((9.814991e-22 1.825879e-21 -4.372140e-09) (-6.524550e-24 -6.568233e-24 4.918051e-09))
0.0227273     	((1.503145e-07 3.556426e-02 4.425195e-20) (-1.072960e-07 -1.651716e-04 -1.168335e-22)) ((9.818044e-22 1.826333e-21 -2.761086e-09) (-6.303542e-24 -6.897873e-24 4.876743e-09))
0.0231818     	((9.937979e-08 3.557456e-02 4.427622e-20) (-1.090421e-07 -1.651502e-04 -1.532819e-22)) ((9.821326e-22 1.826874e-21 -2.241158e-09) (-7.032226e-24 -6.686112e-24 4.860103e-09))
0.0236364     	((1.482647e-07 3.558611e-02 4.430288e-20) (-1.022275e-07 -1.651367e-04 -8.853840e-23)) ((9.824927e-22 1.827531e-21 -2.433090e-09) (-5.855215e-24 -6.629027e-24 4.813124e-09))
0.0240909     	((1.305674e-07 3.559864e-02 4.433018e-20) (-1.063713e-07 -1.651210e-04 -1.261203e-22)) ((9.828625e-22 1.828252e-21 -1.749150e-09) (-6.510323e-24 -5.922569e-24 4.888587e-09))
0.0245455     	((1.099549e-07 3.561166e-02 4.435400e-20) (-1.103716e-07 -1.650907e-04 -1.770178e-22)) ((9.831387e-22 1.828960e-21 -1.590486e-09) (-7.447858e-24 -6.492542e-24 4.936703e-09))
0.025         	((1.683654e-07 3.562539e-02 4.438116e-20) (-1.107809e-07 -1.650694e-04 -1.405025e-22)) ((9.834729e-22 1.829757e-21 -1.851795e-09) (-6.738916e-24 -6.763144e-24 5.009228e-09))
0.0254545     	((9.775593e-08 3.563942e-02 4.440482e-20) (-1.065297e-07 -1.650393e-04 -1.657714e-22)) ((9.837281e-22 1.830555e-21 8.351378e-11) (-7.285576e-24 -5.783134e-24 4.900317e-09))
0.0259091     	((1.302010e-07 3.565356e-02 4.443068e-20) (-1.048562e-07 -1.649954e-04 -1.244023e-22)) ((9.840211e-22 1.831318e-21 -8.976094e-10) (-6.425734e-24 -6.554402e-24 4.896581e-09))
0.0263636     	((1.410981e-07 3.566782e-02 4.445458e-20) (-1.077723e-07 -1.649586e-04 -7.845680e-23)) ((9.842570e-22 1.832131e-21 -6.800771e-10) (-5.635093e-24 -7.153762e-24 4.989832e-09))
0.0268182     	((2.163641e-07 3.568255e-02 4.447922e-20) (-1.052799e-07 -1.649131e-04 -1.372797e-22)) ((9.845007e-22 1.832988e-21 -1.918935e-09) (-6.639463e-24 -6.605720e-24 5.076721e-09))
0.0272727     	((9.624832e-08 3.569684e-02 4.449987e-20) (-1.104729e-07 -1.648565e-04 -1.532124e-22)) ((9.846491e-22 1.833803e-21 4.425887e-10) (-7.038644e-24 -6.430593e-24 5.081558e-09))
0.0277273     	((1.481882e-07 3.571086e-02 4.452226e-20) (-1.096344e-07 -1.647959e-04 -1.108305e-22)) ((9.848324e-22 1.834591e-21 -5.576186e-10) (-6.262674e-24 -6.408934e-24 5.118560e-09))
0.0281818     	((1.859165e-07 3.572453e-02 4.454586e-20) (-1.007775e-07 -1.647343e-04 -1.431103e-22)) ((9.850487e-22 1.835322e-21 -1.250975e-09) (-6.730307e-24 -6.477285e-24 5.007350e-09))
0.0286364     	((2.215261e-07 3.573805e-02 4.456474e-20) (-1.085761e-07 -1.646664e-04 -8.598372e-23)) ((9.851393e-22 1.836051e-21 -1.558192e-09) (-5.717138e-24 -6.878021e-24 5.149111e-09))
0.0290909     	((2.207836e-07 3.575115e-02 4.458480e-20) (-1.073372e-07 -1.645905e-04 -1.052345e-22)) ((9.852644e-22 1.836742e-21 -1.523876e-09) (-6.072031e-24 -6.178452e-24 5.126499e-09))
0.0295455     	((1.806517e-07 3.576382e-02 4.460648e-20) (-1.080839e-07 -1.645090e-04 -1.180176e-22)) ((9.854221e-22 1.837438e-21 -6.655003e-10) (-6.315310e-24 -6.298245e-24 5.103659e-09))
0.03          	((2.085806e-07 3.577597e-02 4.462756e-20) (-1.121773e-07 -1.644096e-04 -9.426889e-23)) ((9.855410e-22 1.838054e-21 -8.387883e-10) (-5.695468e-24 -6.026060e-24 5.152434e-09))
0.0304545     	((2.156766e-07 3.578783e-02 4.464663e-20) (-1.005633e-07 -1.643242e-04 -8.824379e-23)) ((9.856211e-22 1.838637e-21 -1.413534e-09) (-5.567335e-24 -6.413525e-24 5.071753e-09))
0.0309091     	((2.367455e-07 3.579912e-02 4.467020e-20) (-1.009479e-07 -1.642136e-04 -1.686868e-22)) ((9.857683e-22 1.839208e-21 -2.042972e-09) (-7.199080e-24 -5.606076e-24 5.021562e-09))
0.0313636     	((2.383474e-07 3.581039e-02 4.469613e-20) (-1.010771e-07 -1.641197e-04 -1.146690e-22)) ((9.859751e-22 1.839743e-21 -2.341247e-09) (-6.169885e-24 -5.840152e-24 5.009735e-09))
0.0318182     	((2.434471e-07 3.582091e-02 4.472179e-20) (-9.748538e-08 -1.640041e-04 -1.179932e-22)) ((9.861457e-22 1.840188e-21 -2.531820e-09) (-6.191097e-24 -5.965396e-24 4.943854e-09))
0.0322727     	((2.478042e-07 3.583097e-02 4.475063e-20) (-1.075707e-07 -1.638918e-04 -8.497686e-23)) ((9.863745e-22 1.840615e-21 -3.356458e-09) (-5.519149e-24 -5.818154e-24 5.180767e-09))
0.0327273     	((2.986397e-07 3.584066e-02 4.478339e-20) (-1.022624e-07 -1.637811e-04 -1.327515e-22)) ((9.866479e-22 1.841006e-21 -4.682539e-09) (-6.401145e-24 -6.137608e-24 5.115789e-09))
0.0331818     	((3.317539e-07 3.584986e-02 4.482313e-20) (-1.049394e-07 -1.636589e-04 -1.226459e-22)) ((9.870499e-22 1.841373e-21 -5.085467e-09) (-6.201113e-24 -5.817051e-24 5.214777e-09))
0.0336364     	((3.545007e-07 3.585880e-02 4.486464e-20) (-1.036535e-07 -1.635512e-04 -7.777718e-23)) ((9.874607e-22 1.841654e-21 -5.849395e-09) (-5.544506e-24 -6.480898e-24 5.228861e-09))
0.0340909     	((3.424784e-07 3.586707e-02 4.491375e-20) (-9.685378e-08 -1.634302e-04 -3.364435e-23)) ((9.880149e-22 1.841906e-21 -6.050896e-09) (-4.651906e-24 -6.139667e-24 5.093350e-09))
0.0345455     	((3.326572e-07 3.587517e-02 4.496507e-20) (-1.046724e-07 -1.633270e-04 -7.934738e-23)) ((9.885658e-22 1.842140e-21 -6.729045e-09) (-5.464861e-24 -6.027590e-24 5.211539e-09))
0.035         	((4.057657e-07 3.588278e-02 4.501927e-20) (-9.443147e-08 -1.632192e-04 -1.297284e-22)) ((9.891210e-22 1.842203e-21 -8.539919e-09) (-6.664593e-24 -6.838488e-24 5.115806e-09))
0.0354545     	((3.363970e-07 3.589000e-02 4.508789e-20) (-9.249183e-08 -1.631233e-04 -1.649731e-22)) ((9.899833e-22 1.842428e-21 -7.502150e-09) (-7.104667e-24 -6.660877e-24 4.987567e-09))
0.0359091     	((3.502059e-07 3.589684e-02 4.515215e-20) (-1.049472e-07 -1.630256e-04 -1.004370e-22)) ((9.906656e-22 1.842609e-21 -8.107153e-09) (-5.720097e-24 -6.053941e-24 5.155496e-09))
0.0363636     	((4.381136e-07 3.590331e-02 4.523406e-20) (-9.232740e-08 -1.629359e-04 -7.109046e-23)) ((9.917206e-22 1.842584e-21 -1.010955e-08) (-5.215806e-24 -6.210465e-24 5.053675e-09))
0.0368182     	((3.926830e-07 3.590949e-02 4.531383e-20) (-9.720492e-08 -1.628632e-04 -6.779898e-23)) ((9.926754e-22 1.842586e-21 -9.713997e-09) (-5.246408e-24 -5.870986e-24 5.087858e-09))
0.0372727     	((3.908804e-07 3.591466e-02 4.540273e-20) (-9.712081e-08 -1.627807e-04 -7.568886e-23)) ((9.937932e-22 1.842484e-21 -1.046470e-08) (-5.287469e-24 -6.457963e-24 5.044775e-09))
0.0377273     	((4.085992e-07 3.592035e-02 4.549659e-20) (-9.623692e-08 -1.627241e-04 -1.449060e-22)) ((9.949629e-22 1.842455e-21 -1.116865e-08) (-6.701394e-24 -5.402148e-24 5.081868e-09))
0.0381818     	((4.035984e-07 3.592515e-02 4.558746e-20) (-9.633615e-08 -1.626603e-04 -1.004835e-22)) ((9.959983e-22 1.842272e-21 -1.180146e-08) (-5.552513e-24 -6.794581e-24 5.027584e-09))
0.0386364     	((4.268274e-07 3.592949e-02 4.570239e-20) (-9.540062e-08 -1.626059e-04 -1.079728e-22)) ((9.975750e-22 1.842153e-21 -1.248074e-08) (-5.767050e-24 -5.840783e-24 5.019633e-09))
0.0390909     	((4.597423e-07 3.593376e-02 4.581158e-20) (-1.035858e-07 -1.625669e-04 -1.041501e-22)) ((9.989524e-22 1.841969e-21 -1.259462e-08) (-6.010197e-24 -5.863288e-24 5.093535e-09))
0.0395455     	((3.787595e-07 3.593760e-02 4.592604e-20) (-9.304248e-08 -1.625367e-04 -1.153517e-22)) ((1.000429e-21 1.841678e-21 -1.187055e-08) (-6.041742e-24 -6.788763e-24 4.991182e-09))
0.04          	((4.257537e-07 3.594110e-02 4.603354e-20) (-9.383944e-08 -1.625064e-04 -1.795219e-22)) ((1.001656e-21 1.841483e-21 -1.409736e-08) (-7.548232e-24 -6.456323e-24 4.907346e-09))
0.0404545     	((4.395992e-07 3.594411e-02 4.616901e-20) (-1.008390e-07 -1.624861e-04 -1.178939e-22)) ((1.003542e-21 1.841170e-21 -1.422136e-08) (-5.984019e-24 -5.363677e-24 5.326723e-09))
0.0409091     	((4.588823e-07 3.594694e-02 4.629183e-20) (-1.027902e-07 -1.624750e-04 -1.189454e-22)) ((1.005078e-21 1.840811e-21 -1.425082e-08) (-6.166054e-24 -5.300069e-24 5.349281e-09))
0.0413636     	((4.170144e-07 3.594941e-02 4.642006e-20) (-1.061200e-07 -1.624601e-04 -1.020492e-22)) ((1.006720e-21 1.840430e-21 -1.322450e-08) (-6.003411e-24 -5.259767e-24 5.469083e-09))
0.0418182     	((4.442054e-07 3.595155e-02 4.655419e-20) (-9.784217e-08 -1.624513e-04 -1.062083e-22)) ((1.008458e-21 1.840052e-21 -1.395889e-08) (-5.974537e-24 -4.904179e-24 5.261438e-09))
0.0422727     	((3.993745e-07 3.595330e-02 4.668766e-20) (-1.026604e-07 -1.624552e-04 -1.290032e-22)) ((1.010163e-21 1.839622e-21 -1.300758e-08) (-6.362413e-24 -5.459118e-24 5.333832e-09))
0.0427273     	((4.032546e-07 3.595486e-02 4.682552e-20) (-1.036203e-07 -1.624556e-04 -1.086951e-22)) ((1.011944e-21 1.839191e-21 -1.344510e-08) (-6.001710e-24 -5.867745e-24 5.271034e-09))
0.0431818     	((3.998689e-07 3.595613e-02 4.696398e-20) (-1.040821e-07 -1.624595e-04 -9.307246e-23)) ((1.013723e-21 1.838721e-21 -1.312552e-08) (-5.678334e-24 -5.605679e-24 5.241268e-09))
0.0436364     	((4.103884e-07 3.595719e-02 4.710425e-20) (-1.037615e-07 -1.624725e-04 -1.265477e-22)) ((1.015532e-21 1.838199e-21 -1.311998e-08) (-6.207304e-24 -5.395884e-24 5.243105e-09))
0.0440909     	((4.053785e-07 3.595793e-02 4.724524e-20) (-1.060133e-07 -1.624795e-04 -1.246925e-22)) ((1.017346e-21 1.837697e-21 -1.284975e-08) (-6.219888e-24 -5.677977e-24 5.291898e-09))
0.0445455     	((3.942849e-07 3.595858e-02 4.738302e-20) (-1.142952e-07 -1.624796e-04 -8.641640e-23)) ((1.019074e-21 1.837192e-21 -1.216700e-08) (-5.210015e-24 -4.641150e-24 5.344472e-09))
0.045         	((3.129504e-07 3.595890e-02 4.752672e-20) (-1.150678e-07 -1.624864e-04 -9.099662e-23)) ((1.020956e-21 1.836642e-21 -9.629897e-09) (-5.303648e-24 -5.603505e-24 5.526647e-09))
0.0454545     	((3.605012e-07 3.595899e-02 4.766325e-20) (-1.121418e-07 -1.624978e-04 -8.327953e-23)) ((1.022669e-21 1.836102e-21 -1.154073e-08) (-5.176422e-24 -4.366071e-24 5.254144e-09))
0.0459091     	((2.697226e-07 3.595882e-02 4.779667e-20) (-1.115935e-07 -1.625104e-04 -1.130011e-22)) ((1.024318e-21 1.835596e-21 -8.654677e-09) (-5.838422e-24 -5.273354e-24 5.508176e-09))
0.0463636     	((3.215225e-07 3.595856e-02 4.793883e-20) (-1.102998e-07 -1.625194e-04 -1.277676e-22)) ((1.026193e-21 1.834959e-21 -1.027510e-08) (-6.327978e-24 -5.781441e-24 5.506975e-09))
0.0468182     	((3.211420e-07 3.595822e-02 4.807282e-20) (-1.096340e-07 -1.625364e-04 -1.389354e-22)) ((1.027874e-21 1.834465e-21 -9.260801e-09) (-6.444171e-24 -5.160228e-24 5.354938e-09))
0.0472727     	((3.453482e-07 3.595765e-02 4.820472e-20) (-1.155011e-07 -1.625486e-04 -1.507202e-22)) ((1.029533e-21 1.833788e-21 -9.287148e-09) (-6.870556e-24 -5.597584e-24 5.632513e-09))
0.0477273     	((3.116948e-07 3.595682e-02 4.833628e-20) (-1.136513e-07 -1.625571e-04 -1.343160e-22)) ((1.031211e-21 1.833212e-21 -7.877409e-09) (-6.576751e-24 -5.831283e-24 5.593491e-09))
0.0481818     	((3.109909e-07 3.595602e-02 4.846355e-20) (-1.158830e-07 -1.625765e-04 -1.684469e-22)) ((1.032812e-21 1.832660e-21 -7.479548e-09) (-7.185307e-24 -5.449691e-24 5.629590e-09))
0.0486364     	((2.848666e-07 3.595502e-02 4.858911e-20) (-1.153257e-07 -1.625900e-04 -1.561708e-22)) ((1.034410e-21 1.832098e-21 -6.240164e-09) (-6.917462e-24 -5.350413e-24 5.602867e-09))
0.0490909     	((2.567802e-07 3.595380e-02 4.871498e-20) (-1.140610e-07 -1.626080e-04 -1.010287e-22)) ((1.036052e-21 1.831606e-21 -4.813792e-09) (-5.489437e-24 -5.217617e-24 5.646727e-09))
0.0495455     	((2.618306e-07 3.595269e-02 4.883169e-20) (-1.180213e-07 -1.626154e-04 -1.034885e-22)) ((1.037488e-21 1.831161e-21 -4.872127e-09) (-5.400994e-24 -4.453795e-24 5.617329e-09))
0.05          	((1.914051e-07 3.595134e-02 4.895104e-20) (-1.185853e-07 -1.626211e-04 -6.746826e-23)) ((1.039042e-21 1.830586e-21 -2.813598e-09) (-4.540999e-24 -5.410995e-24 5.624151e-09))
0.0504545     	((1.897584e-07 3.594983e-02 4.906368e-20) (-1.122768e-07 -1.626291e-04 -9.779362e-23)) ((1.040462e-21 1.830004e-21 -3.287052e-09) (-5.150400e-24 -5.311119e-24 5.429919e-09))
0.0509091     	((2.048168e-07 3.594826e-02 4.917406e-20) (-1.063295e-07 -1.626464e-04 -7.520585e-23)) ((1.041844e-21 1.829488e-21 -3.833277e-09) (-4.542814e-24 -5.536461e-24 5.319922e-09))
0.0513636     	((2.309325e-07 3.594675e-02 4.927945e-20) (-1.052172e-07 -1.626556e-04 -1.219341e-22)) ((1.043144e-21 1.828908e-21 -4.438439e-09) (-5.669704e-24 -5.325013e-24 5.262028e-09))
0.0518182     	((2.432789e-07 3.594498e-02 4.939008e-20) (-1.035287e-07 -1.626642e-04 -1.308974e-22)) ((1.044608e-21 1.828276e-21 -4.587594e-09) (-5.868211e-24 -5.318783e-24 5.259261e-09))
0.0522727     	((2.920105e-07 3.594314e-02 4.949389e-20) (-1.160606e-07 -1.626766e-04 -1.171050e-22)) ((1.045919e-21 1.827732e-21 -4.842775e-09) (-5.462465e-24 -5.915504e-24 5.710882e-09))
0.0527273     	((1.617760e-07 3.594143e-02 4.959386e-20) (-1.117063e-07 -1.626516e-04 -1.226643e-22)) ((1.047171e-21 1.827383e-21 -1.757848e-09) (-5.563455e-24 -5.027057e-24 4.902281e-09))
0.0531818     	((2.700725e-07 3.593954e-02 4.969156e-20) (-1.079196e-07 -1.626448e-04 -1.578589e-22)) ((1.048384e-21 1.826904e-21 -4.840576e-09) (-6.483723e-24 -4.420767e-24 5.433344e-09))
0.0536364     	((2.611023e-07 3.593787e-02 4.978919e-20) (-1.094964e-07 -1.626711e-04 -1.771666e-22)) ((1.049591e-21 1.826337e-21 -3.206018e-09) (-6.973155e-24 -4.774092e-24 5.226021e-09))
0.0540909     	((1.955614e-07 3.593580e-02 4.989099e-20) (-8.599981e-08 -1.627163e-04 -1.610266e-22)) ((1.050951e-21 1.825835e-21 -2.803691e-09) (-6.629178e-24 -4.348936e-24 4.737080e-09))
0.0545455     	((2.088379e-07 3.593391e-02 4.998506e-20) (-7.943792e-08 -1.627005e-04 -1.646672e-22)) ((1.052104e-21 1.825390e-21 -4.339896e-09) (-6.778247e-24 -4.456769e-24 4.775152e-09))
0.055         	((3.350294e-07 3.593202e-02 5.008458e-20) (-8.350850e-08 -1.627096e-04 -1.064193e-22)) ((1.053389e-21 1.824655e-21 -7.246127e-09) (-5.211921e-24 -5.116289e-24 4.928133e-09))
0.0554545     	((2.700331e-07 3.592998e-02 5.017992e-20) (-8.825043e-08 -1.627443e-04 -1.700143e-22)) ((1.054568e-21 1.824333e-21 -6.311655e-09) (-6.767908e-24 -3.993508e-24 5.072011e-09))
0.0559091     	((3.287415e-07 3.592798e-02 5.028388e-20) (-9.088935e-08 -1.627215e-04 -1.912701e-22)) ((1.055953e-21 1.823739e-21 -7.803491e-09) (-7.249858e-24 -4.424071e-24 4.977372e-09))
0.0563636     	((3.402058e-07 3.592601e-02 5.037281e-20) (-8.820173e-08 -1.627224e-04 -1.883284e-22)) ((1.056934e-21 1.823261e-21 -8.036965e-09) (-7.174857e-24 -4.847722e-24 5.364043e-09))
0.0568182     	((3.898304e-07 3.592401e-02 5.048577e-20) (-8.843381e-08 -1.627077e-04 -8.841920e-23)) ((1.058510e-21 1.822651e-21 -9.466642e-09) (-4.882747e-24 -4.263050e-24 5.043583e-09))
0.0572727     	((3.884879e-07 3.592203e-02 5.057910e-20) (-9.400785e-08 -1.627556e-04 -1.899371e-22)) ((1.059569e-21 1.822186e-21 -9.931986e-09) (-7.327516e-24 -4.716845e-24 5.370652e-09))
0.0577273     	((4.330004e-07 3.592009e-02 5.068390e-20) (-1.038686e-07 -1.627447e-04 -1.626739e-22)) ((1.060900e-21 1.821589e-21 -1.093211e-08) (-6.552811e-24 -4.283497e-24 5.424423e-09))
0.0581818     	((3.828329e-07 3.591808e-02 5.079420e-20) (-1.049235e-07 -1.627563e-04 -1.565413e-22)) ((1.062327e-21 1.821020e-21 -9.618703e-09) (-6.232498e-24 -4.813047e-24 5.384216e-09))
0.0586364     	((3.862820e-07 3.591603e-02 5.091545e-20) (-1.035047e-07 -1.627413e-04 -1.497148e-22)) ((1.063999e-21 1.820338e-21 -1.012606e-08) (-6.186920e-24 -4.036812e-24 5.252414e-09))
0.0590909     	((3.861398e-07 3.591420e-02 5.103153e-20) (-1.028997e-07 -1.627730e-04 -1.647142e-22)) ((1.065519e-21 1.819722e-21 -1.097284e-08) (-6.445972e-24 -4.901504e-24 5.074787e-09))
0.0595455     	((4.737936e-07 3.591217e-02 5.113618e-20) (-1.093104e-07 -1.627685e-04 -1.467646e-22)) ((1.066681e-21 1.819297e-21 -1.233964e-08) (-6.022479e-24 -4.786175e-24 5.460371e-09))
0.06          	((4.338940e-07 3.591035e-02 5.125546e-20) (-1.189559e-07 -1.627864e-04 -1.534984e-22)) ((1.068197e-21 1.818814e-21 -1.112084e-08) (-6.128942e-24 -3.374138e-24 5.391520e-09))
0.0604545     	((3.070301e-07 3.590823e-02 5.137271e-20) (-9.704945e-08 -1.627904e-04 -1.615923e-22)) ((1.069657e-21 1.818167e-21 -9.680709e-09) (-6.303438e-24 -4.646006e-24 5.720679e-09))
0.0609091     	((4.502434e-07 3.590639e-02 5.149549e-20) (-9.684442e-08 -1.628016e-04 -2.151986e-22)) ((1.071209e-21 1.817650e-21 -1.402242e-08) (-7.566790e-24 -4.347615e-24 4.915456e-09))
0.0613636     	((4.652784e-07 3.590453e-02 5.162028e-20) (-1.014392e-07 -1.627868e-04 -2.214408e-22)) ((1.072774e-21 1.816907e-21 -1.481434e-08) (-7.678603e-24 -4.608218e-24 5.376044e-09))
0.0618182     	((5.115428e-07 3.590289e-02 5.174740e-20) (-1.098036e-07 -1.628111e-04 -1.800943e-22)) ((1.074389e-21 1.816331e-21 -1.565610e-08) (-6.691878e-24 -4.692351e-24 5.825179e-09))
0.0622727     	((4.394959e-07 3.590093e-02 5.187441e-20) (-1.080530e-07 -1.628207e-04 -1.438704e-22)) ((1.075983e-21 1.815669e-21 -1.466259e-08) (-5.803369e-24 -4.378677e-24 6.122790e-09))
0.0627273     	((4.665353e-07 3.589940e-02 5.200861e-20) (-9.902607e-08 -1.628160e-04 -1.244344e-22)) ((1.077737e-21 1.815162e-21 -1.518974e-08) (-5.211943e-24 -3.676039e-24 5.187177e-09))
0.0631818     	((4.193681e-07 3.589738e-02 5.213790e-20) (-9.433773e-08 -1.628231e-04 -1.886834e-22)) ((1.079377e-21 1.814383e-21 -1.439603e-08) (-6.934941e-24 -4.704494e-24 5.594406e-09))
0.0636364     	((4.232295e-07 3.589582e-02 5.226595e-20) (-9.907328e-08 -1.628330e-04 -1.767694e-22)) ((1.080975e-21 1.813913e-21 -1.522210e-08) (-6.600100e-24 -5.118950e-24 5.794756e-09))
0.0640909     	((5.361172e-07 3.589412e-02 5.239691e-20) (-1.073279e-07 -1.628673e-04 -1.934743e-22)) ((1.082661e-21 1.813216e-21 -1.641755e-08) (-7.027616e-24 -4.210183e-24 5.458291e-09))
0.0645455     	((4.319237e-07 3.589245e-02 5.252904e-20) (-1.179945e-07 -1.628660e-04 -1.596608e-22)) ((1.084416e-21 1.812643e-21 -1.462479e-08) (-6.292190e-24 -4.157205e-24 6.484593e-09))
0.065         	((4.836683e-07 3.589110e-02 5.265887e-20) (-1.238757e-07 -1.628980e-04 -1.869679e-22)) ((1.086113e-21 1.812031e-21 -1.542096e-08) (-6.783001e-24 -3.833201e-24 5.446524e-09))
0.0654545     	((3.920277e-07 3.588957e-02 5.278314e-20) (-1.188405e-07 -1.629242e-04 -1.513340e-22)) ((1.087709e-21 1.811384e-21 -1.302842e-08) (-5.814498e-24 -3.712307e-24 5.432393e-09))
0.0659091     	((3.567009e-07 3.588761e-02 5.288588e-20) (-1.149698e-07 -1.629546e-04 -2.145839e-22)) ((1.088801e-21 1.810926e-21 -1.277683e-08) (-7.572289e-24 -4.381220e-24 5.376975e-09))
0.0663636     	((3.676157e-07 3.588623e-02 5.300314e-20) (-1.151598e-07 -1.629038e-04 -1.781235e-22)) ((1.090306e-21 1.810444e-21 -1.284990e-08) (-6.537949e-24 -3.073395e-24 5.343081e-09))
0.0668182     	((3.332816e-07 3.588479e-02 5.311106e-20) (-1.027906e-07 -1.628992e-04 -2.008697e-22)) ((1.091636e-21 1.809832e-21 -1.235459e-08) (-6.907496e-24 -4.324478e-24 5.416218e-09))
0.0672727     	((3.481530e-07 3.588327e-02 5.321981e-20) (-1.052717e-07 -1.628916e-04 -1.433911e-22)) ((1.093052e-21 1.809381e-21 -1.224350e-08) (-5.515565e-24 -3.903363e-24 5.792829e-09))
0.0677273     	((3.707555e-07 3.588175e-02 5.332900e-20) (-1.057140e-07 -1.629134e-04 -1.652165e-22)) ((1.094555e-21 1.808732e-21 -1.238705e-08) (-6.122624e-24 -3.473447e-24 5.522810e-09))
0.0681818     	((2.972125e-07 3.588050e-02 5.342318e-20) (-1.018866e-07 -1.629415e-04 -2.054264e-22)) ((1.095754e-21 1.808198e-21 -1.151398e-08) (-7.124630e-24 -4.628740e-24 5.506934e-09))
0.0686364     	((3.458188e-07 3.587895e-02 5.350391e-20) (-9.882884e-08 -1.629559e-04 -1.863279e-22)) ((1.096678e-21 1.807810e-21 -1.182057e-08) (-6.616495e-24 -4.147306e-24 4.345944e-09))
0.0690909     	((2.723158e-07 3.587768e-02 5.358462e-20) (-1.081079e-07 -1.629313e-04 -1.902026e-22)) ((1.097699e-21 1.807433e-21 -9.258261e-09) (-6.718980e-24 -3.902972e-24 5.241851e-09))
0.0695455     	((2.617697e-07 3.587628e-02 5.365515e-20) (-1.025478e-07 -1.629327e-04 -1.524685e-22)) ((1.098576e-21 1.807218e-21 -8.412409e-09) (-5.742509e-24 -3.331593e-24 4.550712e-09))