# vtk DataFile Version 2.0
sampleSurface
ASCII
DATASET POLYDATA
POINTS 15978 float
-4.26165e-19 0.000133477 0 -4.18079e-19 -0.000798814 0 -4.33681e-19 0.001 0 -4.09379e-19 -0.00180187
0 -0.00181681 0.000361473 0 0.00181681 0.000361473 0 -0.00181396 -0.000575145 0
0.00181396 -0.000575145 0 -0.00181945 0.00123202 0 0.00181945 0.00123202 0 -0.00181089
-0.00158285 0 0.00181089 -0.00158285 0 -4.00018e-19 -0.00288105 0 -0.00180759 -0.00266704
0 0.00180759 -0.00266704 0 -0.00351565 8.15481e-05 0 0.00351565 8.15481e-05 0
-0.00351186 -0.000939823 0 0.00351186 -0.000939823 0 -0.00351918 0.00103087 0 0.00351918
0.00103087 0 -0.00352245 0.00191322 0 0.00352245 0.00191322 0 -3.89947e-19 -0.00404214
0 -0.00350777 -0.00203871 0 0.00350777 -0.00203871 0 -0.00180405 -0.00383352 0
0.00180405 -0.00383352 0 -0.00350338 -0.00322101 0 0.00350338 -0.00322101 0 -0.005
8.60602e-05 0 0.005 8.60602e-05 0 -0.005 -0.00103629 0 0.005 -0.00103629
0 -0.005 0.00112923 0 0.005 0.00112923 0 -3.79112e-19 -0.00529135 0
-0.00180023 -0.00508853 0 0.00180023 -0.00508853 0 -0.005 0.00209882 0 0.005
0.00209882 0 -0.005 -0.00224382 0 0.005 -0.00224382 0 -0.00349866 -0.00449304
0 0.00349866 -0.00449304 0 -0.005 0.003 0 0.005 0.003 0
-0.005 -0.003543 0 0.005 -0.003543 0 -0.00637208 2.82617e-05 0 0.00639053
4.25732e-05 0 -0.00637208 0.00114892 0 -0.00637208 -0.00117745 0 0.00639053 -0.00116311
0 0.00639053 0.00116321 0 -3.67455e-19 -0.00663538 0 -0.00179612 -0.00643879 0
0.00179612 -0.00643879 0 -0.00637208 0.00219052 0 0.00639053 0.00220479 0 -0.00349357
-0.00586162 0 0.00349357 -0.00586162 0 -0.00637208 -0.00247467 0 0.00639053 -0.00246031
0 -0.005 -0.00494079 0 0.005 -0.00494079 0 -0.00637208 0.00315864 0
0.00639053 0.00317289 0 -0.00637208 -0.00387036 0 0.00639053 -0.00385597 0 -0.00637208
0.00405846 0 0.00639053 0.00407269 0 -0.00778421 -7.99569e-05 0 0.00781802 -5.3679e-05
0 -0.00778421 0.00112388 0 0.00781802 0.00115011 0 -0.00778421 -0.00137517 0
0.00781802 -0.00134884 0 -3.54912e-19 -0.00808142 0 -0.0017917 -0.00789154 0 0.0017917
-0.00789154 0 -0.00778421 0.0022428 0 -0.0034881 -0.00733407 0 0.0034881 -0.00733407
0 0.00781802 0.00226899 0 -0.005 -0.00644467 0 0.005 -0.00644467 0
-0.00778421 -0.00276868 0 0.00781802 -0.0027423 0 -0.00637208 -0.00537197 0 0.00639053
-0.00535755 0 -0.00778421 0.00328278 0 0.00781802 0.00330893 0 -0.00778421 0.00424939
0 -0.00778421 -0.00426796 0 0.00781802 -0.00424152 0 0.00781802 0.00427551 0
-0.00923755 -0.000243565 0 0.00928347 -0.000207818 0 -0.00923755 0.00104957 0 -0.00778421
0.00514782 0 0.00928347 0.00108525 0 0.00781802 0.0051739 0 -0.00923755 -0.00163485
0 0.00928347 -0.00159903 0 -0.00637208 -0.00698755 0 0.00639053 -0.0069731 0
-0.005 -0.0080627 0 0.005 -0.0080627 0 -0.00923755 0.00225148 0 0.00928347
0.0022871 0 -0.00348222 -0.00891827 0 0.00348222 -0.00891827 0 -0.00178695 -0.00945455
0 0.00178695 -0.00945455 0 -3.41418e-19 -0.00963721 0 -0.00923755 -0.00313172 0
-0.00778421 -0.00588103 0 0.00781802 -0.00585453 0 0.00928347 -0.00309583 0 -0.00923755
0.0033686 0 0.00928347 0.00340416 0 -0.00923755 0.00440692 0 0.00928347 0.00444243
0 -0.00923755 -0.00474221 0 0.00928347 -0.00470623 0 -0.00923755 0.00537198 0
-0.0107333 -0.000467921 0 0.00928347 0.00540745 0 -0.0107333 0.000921062 0 0.0107879
-0.000425364 0 0.00639053 -0.00871127 0 -0.00637208 -0.00872575 0 0.0107879 0.000963535
0 -0.00778421 -0.00761653 0 0.00781802 -0.00758997 0 -0.0107333 -0.00196233 0
0.0107879 -0.00191968 0 -0.0107333 0.00221206 0 -0.005 -0.00980352 0 0.005
-0.00980352 0 0.0107879 0.00225445 0 -0.00923755 0.00626897 0 -0.00347589 -0.0106227
0 0.00347589 -0.0106227 0 0.00928347 0.00630439 0 -0.0107333 0.00341198 0
-0.00178183 -0.0111362 0 0.00178183 -0.0111362 0 -0.00923755 -0.00647493 0 0.00928347
-0.00643887 0 -3.26899e-19 -0.0113111 0 -0.0107333 -0.00357015 0 0.0107879 0.00345431
0 0.0107879 -0.00352741 0 -0.0107333 0.00452726 0 0.0107879 0.00456952 0
-0.0107333 -0.00530001 0 0.0107879 -0.00525717 0 -0.0107333 0.00556386 0 0.0107879
0.00560606 0 -0.000743369 0.0122055 0 0.000743369 0.0122055 0 -0.00778421 -0.00948375
0 0.00781802 -0.00945713 0 -0.0122727 0.000733061 0 -0.0122727 -0.000758799 0
0.0123323 -0.000712262 0 0.0123323 0.0007795 0 0.00639053 -0.0105814 0 -0.00637208
-0.0105959 0 -0.00923755 -0.00833916 0 -0.0122727 0.00211968 0 0.00928347 -0.00830301
0 -0.0122727 -0.00236389 0 0.0123323 0.00216603 0 0.0123323 -0.00231725 0
-0.0107333 0.00652734 0 0.0107879 0.00656947 0 -0.005 -0.0116765 0 0.005
-0.0116765 0 -0.0122727 0.00340848 0 0.0123323 0.00345474 0 -0.000741126 0.0128136
0 0.000741126 0.0128136 0 -0.0107333 -0.00716117 0 0.0107879 -0.00711821 0
-0.00346908 -0.0124565 0 0.00346908 -0.0124565 0 -0.0122727 -0.00409081 0 0.0123323
-0.00404405 0 -0.0107333 0.00742284 0 -0.00177633 -0.0129455 0 0.00177633 -0.0129455
0 -0.0122727 0.00460636 0 -3.11279e-19 -0.013112 0 0.0107879 0.00746492 0
-0.002 0.013 0 0.002 0.013 0 0.0123323 0.00465255 0 -0.0007387
0.0134712 0 0.0007387 0.0134712 0 -0.0122727 0.00571974 0 0.0123323 0.00576585
0 -0.0122727 -0.00594879 0 0.0123323 -0.00590191 0 -0.002 0.0135849 0
0.002 0.0135849 0 -0.0138571 0.000479853 0 -0.00923755 -0.0103449 0 0.00928347
-0.0103086 0 0.00781802 -0.011466 0 -0.00778421 -0.0114927 0 -0.0138571 -0.00112242
0 0.0139177 0.000527252 0 0.0139177 -0.00107491 0 -0.0138571 0.0019691 0
-0.0122727 0.00675458 0 0.0139177 0.00201639 0 0.0123323 0.00680062 0 -0.0107333
-0.00916358 0 0.00639053 -0.0125934 0 0.0107879 -0.0091205 0 -0.00637208 -0.012608
0 -0.0138571 -0.0028463 0 0.0139177 -0.00279868 0 -0.000736077 0.0141824 0
0.000736077 0.0141824 0 -0.00319452 0.0138829 0 0.00320133 0.0138879 0 -0.0138571
0.00335328 0 0.0139177 0.00340049 0 -0.002 0.0142174 0 0.002 0.0142174
0 -0.0122727 0.00771641 0 0.0123323 0.00776239 0 -0.005 -0.0136916 0
0.005 -0.0136916 0 -0.0138571 0.00463982 0 -0.0122727 -0.0079478 0 -0.0138571
-0.00470103 0 0.0123323 -0.00790078 0 0.0139177 -0.00465328 0 0.0139177 0.00468694
0 -0.00319452 0.0144678 0 0.00320133 0.0144728 0 -0.00346175 -0.0144295 0
0.00346175 -0.0144295 0 -0.00073324 0.0149515 0 0.00073324 0.0149515 0 -0.0122727
0.00861039 0 -0.00177041 -0.0148921 0 0.00177041 -0.0148921 0 -0.002 0.0149014
0 0.002 0.0149014 0 -0.0138571 0.0058356 0 -2.94473e-19 -0.0150496 0
0.0123323 0.00865631 0 0.0139177 0.00588264 0 -0.0138571 -0.00669653 0 0.0139177
-0.00664864 0 -0.00319452 0.0151003 0 0.00320133 0.0151053 0 -0.0154877 0.000155282
0 -0.0138571 0.00694702 0 -0.00451419 0.0148583 0 0.0045263 0.0148673 0
0.00928347 -0.0124665 0 -0.00923755 -0.0125028 0 0.0155453 0.000200444 0 -0.0154877
-0.00156548 0 0.0139177 0.00699399 0 -0.0154877 0.00175466 0 -0.0107333 -0.011318
0 0.0107879 -0.0112748 0 0.0155453 -0.00152021 0 0.0155453 0.00179972 0
0.00781802 -0.0136273 0 -0.00778421 -0.0136541 0 -0.002 0.0156411 0 0.002
0.0156411 0 -0.000730172 0.0157833 0 0.000730172 0.0157833 0 -0.0154877 0.0032412
0 -0.0154877 -0.00341685 0 0.0155453 0.00328617 0 -0.0122727 -0.0100985 0
0.0155453 -0.00337146 0 0.0123323 -0.0100514 0 -0.0138571 0.00798004 0 0.0139177
0.00802694 0 0.00639053 -0.0147581 0 -0.00637208 -0.0147727 0 -0.00451419 0.0154432
0 0.0045263 0.0154521 0 -0.00319452 0.0157843 0 0.00320133 0.0157893 0
-0.0154877 0.00462288 0 0.0155453 0.00466776 0 -0.0154877 -0.00540874 0 -0.0138571
-0.00884348 0 0.0155453 -0.00536322 0 0.0139177 -0.00879545 0 -0.0138571 0.00894019
0 -0.002 0.0164411 0 0.002 0.0164411 0 0.0139177 0.00898702 0
-0.0154877 0.00590709 0 -0.005 -0.0158596 0 0.005 -0.0158596 0 0.0155453
0.00595189 0 -0.00451419 0.0160757 0 -0.000726854 0.0166828 0 0.000726854 0.0166828
0 0.0045263 0.0160846 0 -0.00319452 0.016524 0 0.00320133 0.016529 0
-0.00345386 -0.0165523 0 0.00345386 -0.0165523 0 -0.0138571 0.0098326 0 -0.00597213
0.0159359 0 0.00598764 0.0159474 0 -0.0154877 0.00710071 0 0.0139177 0.00987937
0 -0.00176404 -0.0169864 0 0.00176404 -0.0169864 0 0.0155453 0.00714543 0
-2.76391e-19 -0.0171343 0 -0.0171658 -0.000247278 0 0.0172162 -0.000207752 0 -0.0171658
0.00147028 0 -0.0154877 -0.0075518 0 0.0155453 -0.00750615 0 0.0172162 0.00150971
0 -0.0171658 -0.00209519 0 0.0172162 -0.00205556 0 0.0107879 -0.0135925 0
-0.0107333 -0.0136359 0 -0.00451419 0.0167597 0 0.0045263 0.0167686 0 -0.002
0.0173062 0 0.002 0.0173062 0 -0.0171658 0.00306667 0 -0.0122727 -0.0124125
0 0.00928347 -0.0147881 0 0.0123323 -0.0123652 0 -0.00923755 -0.0148246 0
0.0172162 0.00310601 0 -0.0154877 0.00821012 0 -0.00597213 0.0165208 0 0.00598764
0.0165323 0 0.0155453 0.00825477 0 -0.00319452 0.017324 0 0.00320133 0.017329
0 -0.0171658 -0.00408336 0 -0.000723266 0.0176555 0 0.000723266 0.0176555 0
0.0172162 -0.00404362 0 -0.0171658 0.00455044 0 0.00781802 -0.0159527 0 -0.00778421
-0.0159796 0 -0.0138571 -0.0111534 0 0.0139177 -0.0111052 0 0.0172162 0.0045897
0 -0.0154877 0.00924127 0 -0.00451419 0.0174994 0 0.0045263 0.0175084 0
0.0155453 0.00928585 0 -0.0171658 0.00592954 0 -0.00597213 0.0171533 0 0.00598764
0.0171648 0 0.0172162 0.00596872 0 0.00639053 -0.0170872 0 -0.00637208 -0.0171018
0 -0.0171658 -0.00622243 0 0.0172162 -0.00618257 0 -0.002 0.0182418 0
0.002 0.0182418 0 -0.0154877 -0.00985753 0 0.0155453 -0.00981172 0 -0.00319452
0.0181891 0 0.00320133 0.0181941 0 -0.0154877 0.0101997 0 0.0155453 0.0102442
0 -0.0171658 0.00721136 0 0.0172162 0.00725047 0 -0.000719385 0.0187075 0
0.000719385 0.0187075 0 -0.00758282 0.0171264 0 0.00759938 0.0171387 0 -0.00597213
0.0178373 0 0.00598764 0.0178488 0 -0.00451419 0.0182994 0 0.0045263 0.0183083
0 -0.005 -0.0181922 0 0.005 -0.0181922 0 -0.018893 -0.00073496 0
-0.018893 0.0011094 0 0.0189314 -0.000704684 0 0.0189314 0.0011396 0 -0.0154877
0.0110905 0 -0.018893 -0.0027193 0 -0.018893 0.00282365 0 -0.0171658 0.00840275
0 0.0189314 -0.00268894 0 0.0155453 0.0111349 0 0.0189314 0.00285377 0
-0.00344538 -0.0188361 0 0.00344538 -0.0188361 0 -0.0171658 -0.00852385 0 0.0172162
0.00844179 0 0.0172162 -0.00848386 0 -0.00758282 0.0177113 0 0.00759938 0.0177235
0 -0.0122727 -0.0149021 0 0.0123323 -0.0148546 0 -0.00175719 -0.0192397 0
[...]
CELL_DATA 15677
FIELD attributes 1
U 3 15677 float
-0.30487 10.2652 0 0.190475 10.9192 0 -0.101144 9.44667 0 0.0315571 10.9901
0 0.118846 10.7323 0 -0.0119273 8.75836 0 0.0455281 11.0075 0
0.0144837 10.9815 0 0.0577133 10.4719 0 0.0115311 8.22933 0 0.0466953
11.0122 0 0.043391 11.0311 0 0.0260937 10.9286 0 0.0319077 10.1908
0 0.0113224 7.85611 0 0.0440125 11.0135 0 0.0424066 11.0439 0
0.0428085 11.0209 0 0.033238 10.8603 0 0.0213713 9.90295 0 0.0064415
7.61197 0 0.0413776 11.0136 0 0.040448 11.0462 0 0.0402105 11.0448
0 0.0398952 11.0049 0 0.0328238 10.7692 0 0.0159533 9.63759 0
0.00250448 7.45875 0 0.0386371 11.0131 0 0.0389913 11.0453 0 0.0393864
11.0533 0 0.0385052 11.0445 0 0.0358526 10.9826 0 0.0288597 10.6571
0 0.0121616 9.41247 0 0.000561903 7.36232 0 0.0356119 11.0123 0
0.037376 11.0435 0 0.0387182 11.056 0 0.0384538 11.0587 0 0.0360558
11.0421 0 0.0318445 10.9528 0 0.02408 10.5327 0 0.00902058 9.23752
0 1.54109e-05 7.30017 0 0.0323305 11.0113 0 0.0354665 11.0411 0
0.0376296 11.0557 0 0.0378942 11.064 0 0.0361254 11.0634 0 0.0329216
11.0364 0 0.0284219 10.9174 0 0.0194882 10.3981 0 0.00645843 9.10678
0 -0.000239506 7.25767 0 0.028855 11.0101 0 0.0333359 11.0382 0
0.0362328 11.054 0 0.0369496 11.0652 0 0.0355676 11.0717 0 0.0329703
11.0663 0 0.0298247 11.0289 0 0.025416 10.8759 0 0.0154605 10.2695
0 0.00440264 9.01198 0 -0.000472156 7.23322 0 0.0252629 11.0089 0
0.0310073 11.0348 0 0.0345767 11.0514 0 0.0357325 11.0644 0 0.0346596
11.0746 0 0.0324189 11.0784 0 0.0297823 11.0687 0 0.0268358 11.0213
0 0.022207 10.8306 0 0.0118359 10.1594 0 0.0026574 8.94611 0
-0.000674663 7.22184 0 0.0215495 11.0077 0 0.028486 11.0312 0 0.0326535
11.0481 0 0.0342505 11.0623 0 0.0334628 11.0747 0 0.0314751 11.0833
0 0.0291234 11.0853 0 0.0266343 11.0724 0 0.0235448 11.0144 0
0.0185064 10.7846 0 0.00843476 10.0707 0 0.00109309 8.90421 0 -0.00109171
7.22386 0 0.0178437 11.0065 0 0.025878 11.0273 0 0.0304492 11.0442
0 0.0324875 11.0592 0 0.0319812 11.0731 0 0.0301935 11.0844 0
0.0279925 11.0924 0 0.0257143 11.0938 0 0.0231456 11.0784 0 0.0198525
11.009 0 0.014379 10.7411 0 0.00512424 10.0056 0 -0.000561597 8.88327
0 -0.0017177 7.23939 0 0.0146472 11.0053 0 0.0231934 11.0233 0
0.0279911 11.0398 0 0.0304259 11.0554 0 0.030206 11.0703 0 0.0285899
11.0835 0 0.0264605 11.0948 0 0.024224 11.1033 0 0.0218189 11.105
0 0.0191172 11.0875 0 0.0156554 11.0063 0 0.00989713 10.7053 0
0.00163507 9.96319 0 -0.0022365 8.88166 0 -0.00238455 7.26851 0 0.0120672
11.0043 0 0.0206495 11.0196 0 0.0253143 11.0351 0 0.0280523 11.0508
0 0.0281209 11.0666 0 0.0266596 11.0811 0 0.0245527 11.0945 0
0.0222556 11.107 0 0.0198115 11.117 0 0.0172143 11.1196 0 0.0143662
11.1004 0 0.0107478 11.0078 0 0.00499341 10.6804 0 -0.0019572 9.94265
0 -0.00413078 8.89824 0 -0.00321375 7.31151 0 0.00991297 11.0034 0
0.0183847 11.0164 0 0.0227149 11.0306 0 0.0253719 11.0457 0 0.0257062
11.062 0 0.0243858 11.0776 0 0.0222667 11.0926 0 0.0198378 11.1075
0 0.0172307 11.122 0 0.0145135 11.1342 0 0.0117122 11.1386 0
0.0087038 11.1183 0 0.00502977 11.0155 0 -0.000387647 10.6686 0 -0.00583209
9.9429 0 -0.006229 8.93233 0 -0.00413404 7.36851 0 0.00824409 11.0027
0 0.0163633 11.0136 0 0.0203658 11.0266 0 0.0226948 11.0406 0
0.0229511 11.0566 0 0.0217474 11.0731 0 0.0195866 11.0893 0 0.0169683
11.1059 0 0.0141039 11.1232 0 0.0111201 11.1406 0 0.00811613 11.1559
0 0.00510821 11.1628 0 0.00201396 11.1422 0 -0.00152552 11.031 0
-0.00627424 10.6716 0 -0.0100388 9.96306 0 -0.00853625 8.98361 0 -0.00513538
7.43935 0 0.00685999 11.0021 0 0.0144604 11.0112 0 0.0182043 11.0231
0 0.0202222 11.0362 0 0.0201589 11.0511 0 0.0187295 11.0675 0
0.0164927 11.0848 0 0.0136326 11.1027 0 0.010426 11.1219 0 0.00705797
11.1424 0 0.00367854 11.1635 0 0.000388059 11.1828 0 -0.00275723 11.1931
0 -0.0057796 11.1731 0 -0.00894196 11.0558 0 -0.0127097 10.6904 0
-0.014602 10.0021 0 -0.0110416 9.0515 0 -0.00620499 7.5238 0 0.00572341
11.0017 0 0.0127735 11.0093 0 0.0161876 11.0201 0 0.0178954 11.0321
0 0.017551 11.0461 0 0.0156592 11.0617 0 0.0129716 11.0791 0
0.00981429 11.0982 0 0.0061817 11.1188 0 0.00231713 11.1413 0 -0.00157989
11.1659 0 -0.00535361 11.1917 0 -0.00886368 11.2157 0 -0.0120005 11.2303
0 -0.0147352 11.212 0 -0.017249 11.0914 0 -0.0197023 10.7255 0
-0.019522 10.0595 0 -0.0137329 9.13535 0 -0.00732109 7.62119 0 0.00479031
11.0014 0 0.0112522 11.0078 0 0.0143324 11.0174 0 0.0157172 11.0285
0 0.0150789 11.0414 0 0.0127874 11.0562 0 0.0094033 11.0729 0
0.00550606 11.0922 0 0.00135751 11.114 0 -0.00312113 11.1381 0 -0.00767691
11.165 0 -0.0121017 11.1946 0 -0.0162006 11.2258 0 -0.0197828 11.2555
0 -0.0227013 11.2752 0 -0.0248956 11.2601 0 -0.0264472 11.1386 0
-0.0272414 10.7769 0 -0.0247754 10.1342 0 -0.0165925 9.23447 0 -0.00848762
7.73084 0 0.00404988 11.0011 0 0.00988504 11.0066 0 0.0126426 11.0152
0 0.0136938 11.0252 0 0.0127612 11.0372 0 0.0100688 11.051 0
0.00607844 11.0669 0 0.00117442 11.0855 0 -0.00404503 11.1075 0 -0.00926894
11.1329 0 -0.0146378 11.1615 0 -0.019886 11.1936 0 -0.0247673 11.2291
0 -0.0290386 11.2667 0 -0.0324756 11.303 0 -0.0349177 11.3288 0
-0.0362621 11.3179 0 -0.036507 11.1982 0 -0.035296 10.8446 0 -0.0303451
10.2256 0 -0.0196014 9.34814 0 -0.00968437 7.85204 0 0.00348195 11.001
0 0.00871873 11.0056 0 0.0111041 11.0133 0 0.0118326 11.0224 0
0.0106092 11.0333 0 0.00753054 11.046 0 0.00294763 11.061 0 -0.0028342
11.0788 0 -0.00943623 11.1002 0 -0.0161145 11.1258 0 -0.022475 11.1558
0 -0.0287417 11.1898 0 -0.034611 11.228 0 -0.0397897 11.2702 0
-0.0440026 11.3151 0 -0.0470181 11.3588 0 -0.0486594 11.3916 0 -0.0488013
11.3861 0 -0.0473667 11.2705 0 -0.0438289 10.9281 0 -0.0361889 10.3325
0 -0.0227171 9.47521 0 -0.0108803 7.98354 0 0.00304168 11.0008 0
0.0077641 11.0048 0 0.00976073 11.0117 0 0.010132 11.0199 0 0.00863259
11.0298 0 0.00519116 11.0415 0 4.58133e-05 11.0553 0 -0.00658083 11.0721
0 -0.0143919 11.0926 0 -0.0229051 11.1175 0 -0.0311658 11.1478 0
-0.038684 11.1833 0 -0.0457809 11.2236 0 -0.0521064 11.2689 0 -0.0573358
11.3188 0 -0.0611888 11.3717 0 -0.0634305 11.4235 0 -0.0638902 11.464
0 -0.0624367 11.4651 0 -0.058943 11.3557 0 -0.0527714 11.0265 0
-0.0422352 10.4536 0 -0.0258906 9.61443 0 -0.012061 8.12412 0 0.00269417
11.0007 0 0.00697914 11.0043 0 0.00864388 11.0105 0 0.00865395 11.0178
0 0.00683612 11.0266 0 0.00306442 11.0372 0 -0.00260044 11.0499 0
-0.0100222 11.0655 0 -0.0189903 11.0848 0 -0.0291127 11.1087 0 -0.0397495
11.1381 0 -0.0496793 11.174 0 -0.0582982 11.2161 0 -0.0660575 11.2638
0 -0.0725762 11.3171 0 -0.0775256 11.3754 0 -0.0806315 11.437 0
-0.0816801 11.4976 0 -0.0805274 11.5464 0 -0.0770582 11.5549 0 -0.0711158
11.4533 0 -0.0620078 11.1388 0 -0.0484272 10.5877 0 -0.0290846 9.76444
0 -0.0132145 8.27239 0 0.00241557 11.0006 0 0.00633109 11.0038 0
0.00772132 11.0095 0 0.0074353 11.016 0 0.00529095 11.0238 0 0.00115945
11.0333 0 -0.0049715 11.0448 0 -0.0131233 11.059 0 -0.023178 11.077
0 -0.0348386 11.0996 0 -0.0475645 11.1279 0 -0.0605084 11.1628 0
-0.0721185 11.2053 0 -0.0816741 11.255 0 -0.0898187 11.311 0 -0.0961694
11.3731 0 -0.100411 11.4406 0 -0.102301 11.5115 0 -0.101675 11.5813
0 -0.0984393 11.6388 0 -0.0925285 11.6555 0 -0.0837632 11.5629 0
-0.0714405 11.264 0 -0.0546877 10.7334 0 -0.0322618 9.92377 0 -0.0143244
8.427 0 0.00218915 11.0006 0 0.00579187 11.0035 0 0.0069533 11.0086
0 0.00643589 11.0146 0 0.00403421 11.0215 0 -0.000446599 11.0298 0
-0.00705335 11.0399 0 -0.0158576 11.0528 0 -0.0269102 11.0693 0 -0.0400169
11.0903 0 -0.054742 11.1171 0 -0.0703422 11.1508 0 -0.085709 11.1922
0 -0.0989041 11.2424 0 -0.109111 11.3008 0 -0.117249 11.3659 0
-0.122957 11.4376 0 -0.125965 11.5149 0 -0.126098 11.5955 0 -0.123271
11.6747 0 -0.117466 11.7412 0 -0.108671 11.7664 0 -0.0967404 11.6837
0 -0.080977 11.4005 0 -0.0609382 10.8891 0 -0.0353858 10.0908 0
-0.0153757 8.58648 0 0.00200297 11.0005 0 0.00534031 11.0032 0 0.00631017
11.008 0 0.00561248 11.0134 0 0.00301993 11.0196 0 -0.00172099 11.0268
0 -0.00876088 11.0355 0 -0.0182053 11.0468 0 -0.0301515 11.0616 0
-0.0445904 11.0809 0 -0.0611999 11.1059 0 -0.0793489 11.1379 0 -0.098034
11.1779 0 -0.115838 11.2269 0 -0.130394 11.286 0 -0.140833 11.354
0 -0.148445 11.4291 0 -0.152927 11.511 0 -0.154092 11.5984 0
-0.151868 11.689 0 -0.146273 11.7778 0 -0.137391 11.8532 0 -0.125295
11.8871 0 -0.109883 11.8147 0 -0.0905042 11.5471 0 -0.0671073 11.0533
0 -0.038423 10.2641 0 -0.0163712 8.7494 0 0.00184833 11.0004 0
0.00495979 11.0029 0 0.00576848 11.0074 0 0.0049314 11.0124 0 0.00220024
11.0179 0 -0.00271974 11.0242 0 -0.0100686 11.0317 0 -0.0200705 11.0413
0 -0.0328748 11.0542 0 -0.0485123 11.0715 0 -0.0668653 11.0945 0
-0.0874261 11.1243 0 -0.109307 11.1625 0 -0.131191 11.21 0 -0.151319
11.2678 0 -0.166869 11.3367 0 -0.176982 11.4153 0 -0.183414 11.5011
0 -0.185976 11.5936 0 -0.184606 11.6915 0 -0.179374 11.792 0
-0.170433 11.8901 0 -0.157981 11.9743 0 -0.142201 12.0168 0 -0.123041
11.9548 0 -0.0999102 11.7021 0 -0.0731298 11.2243 0 -0.0413524 10.442
0 -0.0172263 8.91468 0 0.00171873 11.0004 0 0.00463726 11.0027 0
0.0053096 11.007 0 0.00436576 11.0115 0 0.00153662 11.0165 0 -0.00349953
11.0221 0 -0.0110488 11.0285 0 -0.0214382 11.0365 0 -0.0349692 11.0472
0 -0.051746 11.0622 0 -0.0716771 11.0829 0 -0.0944808 11.1103 0
-0.119401 11.1461 0 -0.145232 11.1915 0 -0.170303 11.2477 0 -0.192498
11.3153 0 -0.208515 11.3952 0 -0.217571 11.4851 0 -0.22204 11.5822
0 -0.221895 11.6856 0 -0.217248 11.7939 0 -0.208338 11.9042 0
-0.195477 12.0113 0 -0.178995 12.1039 0 -0.159187 12.1545 0 -0.136069
12.1026 0 -0.109094 11.8641 0 -0.0789645 11.4004 0 -0.0441067 10.6232
0 -0.0185373 9.07952 0 0.00160928 11.0004 0 0.00436234 11.0026 0
0.00491852 11.0066 0 0.00389406 11.0108 0 0.000998182 11.0154 0 -0.00410606
11.0202 0 -0.0117723 11.0257 0 -0.0224042 11.0323 0 -0.0364335 11.0411
0 -0.0541598 11.0535 0 -0.0755861 11.0713 0 -0.100434 11.096 0
-0.128197 11.129 0 -0.157802 11.1717 0 -0.18768 11.2256 0 -0.215781
11.2917 0 -0.239601 11.3702 0 -0.255371 11.4619 0 -0.262497 11.5638
0 -0.264112 11.6725 0 -0.260407 11.7869 0 -0.251706 11.9054 0
-0.238446 12.0251 0 -0.221113 12.1407 0 -0.200179 12.241 0 -0.176055
12.2993 0 -0.148827 12.2568 0 -0.117988 12.0315 0 -0.0845393 11.5804
0 -0.0473167 10.8056 0 -0.0197636 9.27369 0 0.00151619 11.0003 0
0.00412682 11.0024 0 0.00458518 11.0063 0 0.00349899 11.0102 0 0.00056026
11.0143 0 -0.0045759 11.0186 0 -0.0122961 11.0232 0 -0.0230594 11.0286
0 -0.0373948 11.0357 0 -0.0557691 11.0456 0 -0.0784325 11.0602 0
-0.10522 11.0816 0 -0.135593 11.1114 0 -0.168753 11.151 0 -0.203256
11.2019 0 -0.237133 11.2655 0 -0.267905 11.3425 0 -0.292722 11.433
0 -0.30736 11.5374 0 -0.311548 11.6517 0 -0.309327 11.7721 0
-0.301158 11.8974 0 -0.287611 12.0257 0 -0.269346 12.1542 0 -0.247032
12.2776 0 -0.221284 12.3847 0 -0.192617 12.4499 0 -0.161204 12.4161
0 -0.126495 12.2028 0 -0.0902411 11.7621 0 -0.0501386 11.0093 0
-0.0200829 9.47319 0 0.00143646 11.0003 0 0.0039242 11.0023 0 0.00429826
11.006 0 0.00316655 11.0097 0 0.000203148 11.0135 0 -0.00493818 11.0173
0 -0.0126658 11.0211 0 -0.023477 11.0255 0 -0.0379715 11.031 0
-0.0567417 11.0387 0 -0.0802504 11.0503 0 -0.108641 11.0677 0 -0.141503
11.0935 0 -0.177952 11.1294 0 -0.216843 11.1768 0 -0.256312 11.2372
0 -0.293931 11.3118 0 -0.326822 11.4009 0 -0.351814 11.5042 0
-0.364271 11.6218 0 -0.36439 11.7489 0 -0.357278 11.8809 0 -0.343716
12.0167 0 -0.324548 12.1542 0 -0.300669 12.2907 0 -0.27293 12.4209
0 -0.24207 12.5341 0 -0.208718 12.6051 0 -0.173077 12.5793 0
-0.134825 12.3762 0 -0.095657 11.9652 0 -0.0519721 11.2327 0 -0.020482
9.66822 0 0.00136762 11.0003 0 0.0037493 11.0022 0 0.00405015 11.0057
0 0.00288686 11.0092 0 -8.89397e-05 11.0127 0 -0.00521604 11.0161 0
-0.0129172 11.0193 0 -0.0237152 11.0227 0 -0.0382584 11.0268 0 -0.0572315
11.0327 0 -0.0812592 11.0415 0 -0.110752 11.0551 0 -0.145678 11.0761
0 -0.185285 11.1074 0 -0.228272 11.1507 0 -0.273087 11.2072 0
-0.317384 11.2783 0 -0.358285 11.365 0 -0.392532 11.4672 0 -0.416678
11.5842 0 -0.425746 11.7153 0 -0.42057 11.8552 0 -0.407477 11.9986
0 -0.387603 12.1442 0 -0.362084 12.2901 0 -0.332048 12.4336 0
-0.298512 12.5697 0 -0.262334 12.6878 0 -0.2242 12.7639 0 -0.184516
12.7444 0 -0.143171 12.5705 0 -0.100468 12.1888 0 -0.0539814 11.4522
0 -0.0209097 9.8567 0 0.00130834 11.0003 0 0.00359756 11.0021 0
0.0038359 11.0055 0 0.00264998 11.0088 0 -0.000328469 11.0121 0 -0.00542783
11.015 0 -0.0130788 11.0177 0 -0.0238195 11.0203 0 -0.0383305 11.0232
0 -0.0573619 11.0273 0 -0.0816581 11.0337 0 -0.111835 11.044 0
-0.148194 11.0604 0 -0.190439 11.0859 0 -0.237395 11.1237 0 -0.287247
11.1756 0 -0.33798 11.2426 0 -0.386757 11.3258 0 -0.430252 11.4258
0 -0.464861 11.542 0 -0.486952 11.6731 0 -0.491296 11.818 0
-0.479543 11.9704 0 -0.459376 12.1246 0 -0.432314 12.2793 0 -0.399781
12.4327 0 -0.363124 12.5822 0 -0.323513 12.723 0 -0.281871 12.845
0 -0.239017 12.9246 0 -0.196222 12.9297 0 -0.151088 12.7849 0
-0.105069 12.4092 0 -0.0559139 11.6653 0 -0.021266 10.0373 0 0.00346486
11.0021 0 0.00123663 11.0003 0 0.00364929 11.0053 0 0.00244828 11.0085
0 -0.000525405 11.0115 0 -0.00558805 11.0141 0 -0.0131728 11.0163 0
-0.0238257 11.0181 0 -0.0382468 11.02 0 -0.05723 11.0226 0 -0.0816063
11.0268 0 -0.112146 11.034 0 -0.14941 11.0463 0 -0.193509 11.0663
0 -0.243812 11.0973 0 -0.298597 11.1429 0 -0.355453 11.2049 0
-0.411888 11.2837 0 -0.464552 11.3803 0 -0.5097 11.4946 0 -0.543459
11.6255 0 -0.562123 11.7711 0 -0.560318 11.9298 0 -0.540683 12.0942
0 -0.512386 12.2584 0 -0.477328 12.4211 0 -0.437208 12.5809 0
-0.393568 12.7352 0 -0.347679 12.8796 0 -0.300549 13.004 0 -0.254388
13.1049 0 -0.207665 13.1343 0 -0.158297 12.9965 0 -0.109235 12.624
0 -0.0575659 11.8703 0 -0.0215313 10.2094 0 0.00348386 11.0052 0
0.00330887 11.002 0 0.00114982 11.0002 0 0.00227497 11.0082 0 -0.000687711
11.011 0 -0.00570784 11.0133 0 -0.0132165 11.015 0 -0.0237616 11.0163
0 -0.0380529 11.0172 0 -0.0569121 11.0184 0 -0.0812297 11.0207 0
-0.11189 11.0252 0 -0.149651 11.0338 0 -0.194945 11.0487 0 -0.247632
11.0732 0 -0.306628 11.1108 0 -0.369553 11.1657 0 -0.433348 11.2391
0 -0.49501 11.3312 0 -0.550698 11.4423 0 -0.59631 11.5719 0
-0.627811 11.7181 0 -0.641544 11.8782 0 -0.63211 12.0502 0 -0.603314
12.226 0 -0.5659 12.3992 0 -0.522134 12.5689 0 -0.473963 12.7338
0 -0.423068 12.8917 0 -0.370808 13.0382 0 -0.320075 13.1827 0
-0.269696 13.3041 0 -0.217969 13.3365 0 -0.164747 13.2031 0 -0.112808
12.8313 0 -0.0589269 12.0664 0 -0.0216968 10.3727 0 0.00212078 11.0079
0 0.00330193 11.005 0 0.00311158 11.0019 0 0.00106663 11.0002 3.75171e-19
-0.000823236 11.0105 0 -0.00579577 11.0126 0 -0.0132231 11.014 0 -0.0236486
11.0146 0 -0.037784 11.0148 0 -0.0564669 11.0148 0 -0.0806267 11.0153
0 -0.111228 11.0174 0 -0.149175 11.0226 0 -0.195151 11.033 0
-0.249411 11.0514 0 -0.311454 11.0813 0 -0.379631 11.127 0 -0.450817
11.1925 0 -0.52122 11.279 0 -0.587351 11.3857 0 -0.644927 11.5125
0 -0.689581 11.658 0 -0.717243 11.8197 0 -0.724452 11.9942 0
-0.705905 12.1789 0 -0.666729 12.365 0 -0.619309 12.5461 0 -0.566244
12.7214 0 -0.509666 12.8903 0 -0.451355 13.0503 0 -0.395104 13.2164
0 -0.339775 13.38 0 -0.283448 13.5011 0 -0.227177 13.5342 0
-0.170326 13.403 0 -0.115809 13.0303 0 -0.0600161 12.253 0 -0.0217672
10.5269 0 -0.000946659 11.0102 0 0.00196934 11.0076 0 0.00308645 11.0047
1.64236e-18 0.00292035 11.0017 -1.18782e-18 0.000986591 11.0002 -7.61403e-19 -0.00586019 11.012 0
-0.0132021 11.013 0 -0.0235024 11.0132 0 -0.0374672 11.0126 0 -0.0559395
11.0116 0 -0.0798729 11.0106 0 -0.110286 11.0105 0 -0.14819 11.0127
0 -0.194457 11.019 0 -0.24965 11.0319 0 -0.313749 11.0546 0
-0.385791 11.0912 0 -0.463472 11.1463 0 -0.54278 11.2241 0 -0.619168
11.3251 0 -0.688716 11.4477 0 -0.746773 11.5911 0 -0.788836 11.7531
0 -0.810947 11.9304 0 -0.809993 12.1188 0 -0.780889 12.3153 0
-0.730218 12.5106 0 -0.672035 12.6982 0 -0.6092 12.8779 0 -0.543982
13.0491 0 -0.481181 13.2287 0 -0.419833 13.4134 0 -0.357515 13.5752
0 -0.295722 13.6939 0 -0.235198 13.7257 0 -0.175061 13.5951 0
-0.118282 13.2203 0 -0.0608585 12.4299 0 -0.0217562 10.6718 0 -0.00592316
11.0115 0 -0.00102944 11.0097 -3.32445e-18 0.0018015 11.0071 -1.7293e-18 0.00287681 11.0044
8.33798e-19 0.00273246 11.0016 -8.0321e-19 0.000909774 11.0002 0 -0.0131621 11.0122 0
-0.0233341 11.0119 0 -0.0371219 11.0107 0 -0.0553644 11.0087 0 -0.0790262
11.0064 0 -0.109162 11.0044 0 -0.146856 11.0039 0 -0.19312 11.0065
0 -0.248758 11.0144 0 -0.314128 11.0306 0 -0.388839 11.0588 0
-0.471382 11.1034 0 -0.558646 11.1694 0 -0.645647 11.2611 0 -0.727087
11.3782 0 -0.798697 11.518 0 -0.855579 11.6787 0 -0.893237 11.8574
0 -0.907995 12.0499 0 -0.897247 12.2515 0 -0.856229 12.4586 0
-0.793088 12.6617 0 -0.723532 12.8545 0 -0.650598 13.037 0 -0.580281
13.2279 0 -0.511733 13.4261 0 -0.442177 13.6084 0 -0.373362 13.7664
0 -0.306461 13.8809 0 -0.242054 13.91 0 -0.179011 13.7789 0
-0.120276 13.4009 0 -0.0614848 12.5969 0 -0.0216782 10.8075 0 -0.0131359
11.0114 0 -0.00589081 11.0108 6.99707e-18 -0.00107849 11.0091 0 0.0016405 11.0067
1.75442e-18 0.00267425 11.0042 5.85177e-22 0.00254846 11.0015 0 0.000836161 11.0002 0
-0.0231527 11.0108 0 -0.0367611 11.009 0 -0.0547662 11.0062 0 -0.0781307
11.0027 0 -0.107929 10.999 0 -0.145296 10.9961 0 -0.191344 10.9954
0 -0.247057 10.9988 0 -0.313092 11.009 0 -0.389518 11.0295 0
-0.475496 11.0644 0 -0.568822 11.1186 0 -0.665476 11.1972 0 -0.759427
11.3044 0 -0.844656 11.439 0 -0.916685 11.5969 0 -0.970509 11.7754
0 -1.00182 11.9707 0 -1.00739 12.1779 0 -0.985259 12.3916 0
-0.931101 12.6081 0 -0.854684 12.8175 0 -0.773303 13.0138 0 -0.694533
13.2164 0 -0.617646 13.4261 0 -0.539447 13.6217 0 -0.462168 13.7996
0 -0.387288 13.952 0 -0.315691 14.0611 0 -0.247823 14.0865 0
-0.182242 13.9537 0 -0.121842 13.5717 0 -0.0619252 12.7538 0 -0.0215461
10.9342 0 -0.0230057 11.0098 0 -0.0129374 11.0106 5.0191e-22 -0.00573992 11.01
0 -0.0011254 11.0085 -1.84622e-18 0.0014884 11.0063 4.18769e-22 0.00247892 11.004 0
0.00236842 11.0014 0 0.000765745 11.0001 0 -0.0363942 11.0075 0 -0.05416
11.004 0 -0.0772176 10.9994 0 -0.106644 10.9942 0 -0.143606 10.9892
0 -0.189287 10.9856 0 -0.244803 10.9849 0 -0.31104 10.9898 0
-0.388437 11.0032 0 -0.476703 11.029 0 -0.57441 11.0721 0 -0.678549
11.1374 0 -0.784092 11.2303 0 -0.883906 11.3548 0 -0.971338 11.5081
0 -1.04187 11.6848 0 -1.09058 11.8814 0 -1.11352 12.093 0
-1.10807 12.3139 0 -1.07309 12.5384 0 -1.00472 12.7627 0 -0.914393
12.9768 0 -0.826292 13.1938 0 -0.73994 13.4156 0 -0.651675 13.6226
0 -0.564301 13.8135 0 -0.479793 13.9852 0 -0.39933 14.131 0
-0.323508 14.2339 0 -0.252597 14.2547 0 -0.184826 14.1194 0 -0.123029
13.7328 0 -0.0622061 12.901 0 -0.0213706 11.0523 0 -0.0360894 11.0062
0 -0.0225801 11.0087 -3.86967e-18 -0.0124922 11.0096 0 -0.00559369 11.0092 0
-0.00115905 11.0079 5.61608e-18 0.00134511 11.006 0 0.00229067 11.0037 0 0.00219249
11.0013 1.67376e-18 0.000698532 11.0001 0 -0.0535561 11.002 0 -0.0763054 10.9965
0 -0.105347 10.99 0 -0.141857 10.9831 0 -0.187067 10.9768 0
-0.242192 10.9726 0 -0.308289 10.9726 0 -0.386084 10.9796 0 -0.475734
10.9972 0 -0.576456 11.0298 0 -0.686124 11.0825 0 -0.800816 11.1607
0 -0.914412 11.2697 0 -1.01865 11.4128 0 -1.10638 11.586 0
-1.17327 11.7821 0 -1.21467 11.9966 0 -1.22719 12.2238 0 -1.20901
12.4573 0 -1.15983 12.6912 0 -1.07634 12.9215 0 -0.978168 13.1572
0 -0.881241 13.3941 0 -0.781431 13.6135 0 -0.68227 13.8157 0
-0.586288 14.0001 0 -0.495105 14.1645 0 -0.409599 14.3027 0 -0.330032
14.3987 0 -0.256475 14.4142 0 -0.186837 14.2758 0 -0.123886 13.8842
0 -0.0623523 13.0387 0 -0.0211623 11.162 0 -0.0530509 11.0003 0
-0.0353612 11.0047 0 -0.021723 11.0074 -4.22922e-18 -0.0120637 11.0086 -4.08122e-18 -0.00542813
11.0085 -7.87234e-18 -0.00117936 11.0074 0 0.00121071 11.0056 -3.65619e-18 0.00210971 11.0035
-3.52159e-18 0.00202064 11.0013 1.69499e-18 0.000634376 11.0001 0 -0.0754046 10.994 0
-0.104059 10.9863 0 -0.1401 10.9777 0 -0.184777 10.9691 0 -0.239375
10.9617 0 -0.305084 10.9573 0 -0.382847 10.9586 0 -0.473179 10.9686
0 -0.575829 10.9916 0 -0.68942 11.0325 0 -0.811014 11.0966 0
-0.935677 11.1895 0 -1.05612 11.3162 0 -1.163 11.4794 0 -1.24885