#           x             T
    -0.118947       349.894
    -0.118121       349.889
    -0.117174       349.883
    -0.116087       349.877
     -0.11484       349.873
    -0.113408        349.87
    -0.111764       349.868
    -0.109877       349.866
    -0.107712       349.865
    -0.105227       349.864
    -0.102374       349.864
   -0.0990995       349.864
   -0.0953416       349.866
   -0.0914285       349.873
   -0.0876191       349.887
   -0.0838095       349.917
        -0.08       349.977
   -0.0761904       350.102
   -0.0723809        350.36
   -0.0685715       350.891
   -0.0649271       351.921
    -0.061624       353.727
    -0.058655       356.615
   -0.0559862         360.8
   -0.0535874        366.26
   -0.0514313       372.647
   -0.0494932       379.221
   -0.0477512       385.077
   -0.0461853       389.613
   -0.0447779       392.762
   -0.0435128       394.799
   -0.0423757       396.068
   -0.0413536       396.842
   -0.0404349       397.329
     -0.03925       397.681
     -0.03775       397.892
     -0.03625       397.963
     -0.03475       397.942
     -0.03325       397.866
     -0.03175       397.758
     -0.03025       397.633
     -0.02875       397.498
     -0.02725        397.36
     -0.02575       397.225
   -0.0243994       397.101
   -0.0231362       396.989
    -0.021743       396.877
   -0.0202065       396.763
   -0.0189203        396.68
   -0.0180315       396.628
   -0.0166427       396.557
   -0.0145812       396.475
    -0.012414       396.423
   -0.0110231       396.403
   -0.0100402       396.397
  -0.00847254       396.396
  -0.00677747       396.407
  -0.00524316       396.417
  -0.00385435       396.427
  -0.00288618       396.434
  -0.00228892       396.439
  -0.00133333       396.448
            0       396.457
   0.00133333       396.463
     0.002289        396.47
   0.00288966       396.481
   0.00386381       396.495
   0.00525697       396.523
   0.00679351       396.568
    0.0084882       396.645
    0.0100473       396.743
    0.0110276       396.826
    0.0124188       396.965
    0.0145859        397.24
    0.0166548       397.303
    0.0180384       397.355
    0.0189282       397.402
    0.0202225       397.503
    0.0217568       397.663
    0.0231456       397.604
    0.0244027       397.445
      0.02575       397.234
      0.02725       396.942
      0.02875       396.483
      0.03025       395.807
      0.03175       394.887
      0.03325       393.686
      0.03475       392.168
      0.03625       390.279
      0.03775       387.968
      0.03925       385.343
    0.0404349        382.89
    0.0413536       380.719
    0.0423757       378.379
    0.0435128       375.699
    0.0447779       372.688
    0.0461853       369.406
    0.0477511       365.977
    0.0494932       362.571
    0.0514312       359.377
    0.0535874       356.582
    0.0559862       354.326
    0.0586549       352.649
     0.061624       351.499
    0.0649271       350.765
    0.0685714       350.328
    0.0723809       350.091
    0.0761904       349.972
         0.08       349.912
    0.0838095       349.883
     0.087619        349.87
    0.0914285       349.865
    0.0953419       349.863
    0.0991002       349.863
     0.102374       349.864
     0.105227       349.866
     0.107713       349.867
     0.109878       349.869
     0.111765       349.871
     0.113408       349.873
      0.11484       349.876
     0.116088       349.881
     0.117175       349.886
     0.118122       349.892
     0.118947       349.896
     0.119665       349.899
