#           x             T
    -0.118947       349.891
    -0.118121       349.886
    -0.117174        349.88
    -0.116087       349.874
     -0.11484       349.869
    -0.113408       349.866
    -0.111764       349.864
    -0.109877       349.862
    -0.107712        349.86
    -0.105227       349.859
    -0.102374       349.858
   -0.0990995       349.857
   -0.0953416       349.857
   -0.0914285        349.86
   -0.0876191       349.868
   -0.0838095       349.887
        -0.08       349.928
   -0.0761904       350.015
   -0.0723809       350.195
   -0.0685715       350.565
   -0.0649271       351.277
    -0.061624       352.524
    -0.058655       354.536
   -0.0559862       357.549
   -0.0535874       361.646
   -0.0514313       366.665
   -0.0494932       372.243
   -0.0477512       377.879
   -0.0461853       383.059
   -0.0447779       387.406
   -0.0435128       390.778
   -0.0423757       393.238
   -0.0413536        394.95
   -0.0404349       396.141
     -0.03925       396.998
     -0.03775       397.262
     -0.03625       396.968
     -0.03475       396.418
     -0.03325       395.826
     -0.03175       395.343
     -0.03025       395.013
     -0.02875       394.821
     -0.02725       394.731
     -0.02575       394.713
   -0.0243994       394.739
   -0.0231362       394.786
    -0.021743       394.864
   -0.0202065       394.999
   -0.0189203       395.123
   -0.0180315       395.211
   -0.0166427        395.35
   -0.0145812       395.564
    -0.012414       395.838
   -0.0110231       395.979
   -0.0100402       396.061
  -0.00847254       396.164
  -0.00677747       396.225
  -0.00524316       396.209
  -0.00385435       396.162
  -0.00288618       396.117
  -0.00228892       396.085
  -0.00133333        396.03
            0       395.945
   0.00133333       395.852
     0.002289       395.784
   0.00288966       395.739
   0.00386381       395.673
   0.00525697       395.587
   0.00679351       395.505
    0.0084882       395.418
    0.0100473       395.362
    0.0110276       395.337
    0.0124188       395.317
    0.0145859       395.315
    0.0166548       395.365
    0.0180384       395.421
    0.0189282       395.468
    0.0202225       395.551
    0.0217568       395.673
    0.0231456       395.829
    0.0244027       396.005
      0.02575       396.207
      0.02725       396.439
      0.02875       396.679
      0.03025       396.894
      0.03175       397.048
      0.03325       397.076
      0.03475       396.889
      0.03625        396.36
      0.03775       395.356
      0.03925       393.812
    0.0404349       391.989
    0.0413536       390.053
    0.0423757       387.645
    0.0435128       384.611
    0.0447779        380.98
    0.0461853       376.867
    0.0477511       372.475
    0.0494932       368.035
    0.0514312        363.78
    0.0535874       359.938
    0.0559862       356.709
    0.0586549       354.212
     0.061624       352.446
    0.0649271         351.3
    0.0685714       350.617
    0.0723809       350.247
    0.0761904       350.058
         0.08       349.963
    0.0838095       349.915
     0.087619       349.891
    0.0914285       349.879
    0.0953419       349.873
    0.0991002        349.87
     0.102374        349.87
     0.105227        349.87
     0.107713       349.871
     0.109878       349.872
     0.111765       349.873
     0.113408       349.875
      0.11484       349.878
     0.116088       349.882
     0.117175       349.888
     0.118122       349.894
     0.118947         349.9
     0.119665       349.903
