# vtk DataFile Version 2.0
sampleSurface
ASCII
DATASET POLYDATA
POINTS 15978 float
-4.26165e-19 0.000133477 0 -4.18079e-19 -0.000798814 0 -4.33681e-19 0.001 0 -4.09379e-19 -0.00180187
0 -0.00181681 0.000361473 0 0.00181681 0.000361473 0 -0.00181396 -0.000575145 0
0.00181396 -0.000575145 0 -0.00181945 0.00123202 0 0.00181945 0.00123202 0 -0.00181089
-0.00158285 0 0.00181089 -0.00158285 0 -4.00018e-19 -0.00288105 0 -0.00180759 -0.00266704
0 0.00180759 -0.00266704 0 -0.00351565 8.15481e-05 0 0.00351565 8.15481e-05 0
-0.00351186 -0.000939823 0 0.00351186 -0.000939823 0 -0.00351918 0.00103087 0 0.00351918
0.00103087 0 -0.00352245 0.00191322 0 0.00352245 0.00191322 0 -3.89947e-19 -0.00404214
0 -0.00350777 -0.00203871 0 0.00350777 -0.00203871 0 -0.00180405 -0.00383352 0
0.00180405 -0.00383352 0 -0.00350338 -0.00322101 0 0.00350338 -0.00322101 0 -0.005
8.60602e-05 0 0.005 8.60602e-05 0 -0.005 -0.00103629 0 0.005 -0.00103629
0 -0.005 0.00112923 0 0.005 0.00112923 0 -3.79112e-19 -0.00529135 0
-0.00180023 -0.00508853 0 0.00180023 -0.00508853 0 -0.005 0.00209882 0 0.005
0.00209882 0 -0.005 -0.00224382 0 0.005 -0.00224382 0 -0.00349866 -0.00449304
0 0.00349866 -0.00449304 0 -0.005 0.003 0 0.005 0.003 0
-0.005 -0.003543 0 0.005 -0.003543 0 -0.00637208 2.82617e-05 0 0.00639053
4.25732e-05 0 -0.00637208 0.00114892 0 -0.00637208 -0.00117745 0 0.00639053 -0.00116311
0 0.00639053 0.00116321 0 -3.67455e-19 -0.00663538 0 -0.00179612 -0.00643879 0
0.00179612 -0.00643879 0 -0.00637208 0.00219052 0 0.00639053 0.00220479 0 -0.00349357
-0.00586162 0 0.00349357 -0.00586162 0 -0.00637208 -0.00247467 0 0.00639053 -0.00246031
0 -0.005 -0.00494079 0 0.005 -0.00494079 0 -0.00637208 0.00315864 0
0.00639053 0.00317289 0 -0.00637208 -0.00387036 0 0.00639053 -0.00385597 0 -0.00637208
0.00405846 0 0.00639053 0.00407269 0 -0.00778421 -7.99569e-05 0 0.00781802 -5.3679e-05
0 -0.00778421 0.00112388 0 0.00781802 0.00115011 0 -0.00778421 -0.00137517 0
0.00781802 -0.00134884 0 -3.54912e-19 -0.00808142 0 -0.0017917 -0.00789154 0 0.0017917
-0.00789154 0 -0.00778421 0.0022428 0 -0.0034881 -0.00733407 0 0.0034881 -0.00733407
0 0.00781802 0.00226899 0 -0.005 -0.00644467 0 0.005 -0.00644467 0
-0.00778421 -0.00276868 0 0.00781802 -0.0027423 0 -0.00637208 -0.00537197 0 0.00639053
-0.00535755 0 -0.00778421 0.00328278 0 0.00781802 0.00330893 0 -0.00778421 0.00424939
0 -0.00778421 -0.00426796 0 0.00781802 -0.00424152 0 0.00781802 0.00427551 0
-0.00923755 -0.000243565 0 0.00928347 -0.000207818 0 -0.00923755 0.00104957 0 -0.00778421
0.00514782 0 0.00928347 0.00108525 0 0.00781802 0.0051739 0 -0.00923755 -0.00163485
0 0.00928347 -0.00159903 0 -0.00637208 -0.00698755 0 0.00639053 -0.0069731 0
-0.005 -0.0080627 0 0.005 -0.0080627 0 -0.00923755 0.00225148 0 0.00928347
0.0022871 0 -0.00348222 -0.00891827 0 0.00348222 -0.00891827 0 -0.00178695 -0.00945455
0 0.00178695 -0.00945455 0 -3.41418e-19 -0.00963721 0 -0.00923755 -0.00313172 0
-0.00778421 -0.00588103 0 0.00781802 -0.00585453 0 0.00928347 -0.00309583 0 -0.00923755
0.0033686 0 0.00928347 0.00340416 0 -0.00923755 0.00440692 0 0.00928347 0.00444243
0 -0.00923755 -0.00474221 0 0.00928347 -0.00470623 0 -0.00923755 0.00537198 0
-0.0107333 -0.000467921 0 0.00928347 0.00540745 0 -0.0107333 0.000921062 0 0.0107879
-0.000425364 0 0.00639053 -0.00871127 0 -0.00637208 -0.00872575 0 0.0107879 0.000963535
0 -0.00778421 -0.00761653 0 0.00781802 -0.00758997 0 -0.0107333 -0.00196233 0
0.0107879 -0.00191968 0 -0.0107333 0.00221206 0 -0.005 -0.00980352 0 0.005
-0.00980352 0 0.0107879 0.00225445 0 -0.00923755 0.00626897 0 -0.00347589 -0.0106227
0 0.00347589 -0.0106227 0 0.00928347 0.00630439 0 -0.0107333 0.00341198 0
-0.00178183 -0.0111362 0 0.00178183 -0.0111362 0 -0.00923755 -0.00647493 0 0.00928347
-0.00643887 0 -3.26899e-19 -0.0113111 0 -0.0107333 -0.00357015 0 0.0107879 0.00345431
0 0.0107879 -0.00352741 0 -0.0107333 0.00452726 0 0.0107879 0.00456952 0
-0.0107333 -0.00530001 0 0.0107879 -0.00525717 0 -0.0107333 0.00556386 0 0.0107879
0.00560606 0 -0.000743369 0.0122055 0 0.000743369 0.0122055 0 -0.00778421 -0.00948375
0 0.00781802 -0.00945713 0 -0.0122727 0.000733061 0 -0.0122727 -0.000758799 0
0.0123323 -0.000712262 0 0.0123323 0.0007795 0 0.00639053 -0.0105814 0 -0.00637208
-0.0105959 0 -0.00923755 -0.00833916 0 -0.0122727 0.00211968 0 0.00928347 -0.00830301
0 -0.0122727 -0.00236389 0 0.0123323 0.00216603 0 0.0123323 -0.00231725 0
-0.0107333 0.00652734 0 0.0107879 0.00656947 0 -0.005 -0.0116765 0 0.005
-0.0116765 0 -0.0122727 0.00340848 0 0.0123323 0.00345474 0 -0.000741126 0.0128136
0 0.000741126 0.0128136 0 -0.0107333 -0.00716117 0 0.0107879 -0.00711821 0
-0.00346908 -0.0124565 0 0.00346908 -0.0124565 0 -0.0122727 -0.00409081 0 0.0123323
-0.00404405 0 -0.0107333 0.00742284 0 -0.00177633 -0.0129455 0 0.00177633 -0.0129455
0 -0.0122727 0.00460636 0 -3.11279e-19 -0.013112 0 0.0107879 0.00746492 0
-0.002 0.013 0 0.002 0.013 0 0.0123323 0.00465255 0 -0.0007387
0.0134712 0 0.0007387 0.0134712 0 -0.0122727 0.00571974 0 0.0123323 0.00576585
0 -0.0122727 -0.00594879 0 0.0123323 -0.00590191 0 -0.002 0.0135849 0
0.002 0.0135849 0 -0.0138571 0.000479853 0 -0.00923755 -0.0103449 0 0.00928347
-0.0103086 0 0.00781802 -0.011466 0 -0.00778421 -0.0114927 0 -0.0138571 -0.00112242
0 0.0139177 0.000527252 0 0.0139177 -0.00107491 0 -0.0138571 0.0019691 0
-0.0122727 0.00675458 0 0.0139177 0.00201639 0 0.0123323 0.00680062 0 -0.0107333
-0.00916358 0 0.00639053 -0.0125934 0 0.0107879 -0.0091205 0 -0.00637208 -0.012608
0 -0.0138571 -0.0028463 0 0.0139177 -0.00279868 0 -0.000736077 0.0141824 0
0.000736077 0.0141824 0 -0.00319452 0.0138829 0 0.00320133 0.0138879 0 -0.0138571
0.00335328 0 0.0139177 0.00340049 0 -0.002 0.0142174 0 0.002 0.0142174
0 -0.0122727 0.00771641 0 0.0123323 0.00776239 0 -0.005 -0.0136916 0
0.005 -0.0136916 0 -0.0138571 0.00463982 0 -0.0122727 -0.0079478 0 -0.0138571
-0.00470103 0 0.0123323 -0.00790078 0 0.0139177 -0.00465328 0 0.0139177 0.00468694
0 -0.00319452 0.0144678 0 0.00320133 0.0144728 0 -0.00346175 -0.0144295 0
0.00346175 -0.0144295 0 -0.00073324 0.0149515 0 0.00073324 0.0149515 0 -0.0122727
0.00861039 0 -0.00177041 -0.0148921 0 0.00177041 -0.0148921 0 -0.002 0.0149014
0 0.002 0.0149014 0 -0.0138571 0.0058356 0 -2.94473e-19 -0.0150496 0
0.0123323 0.00865631 0 0.0139177 0.00588264 0 -0.0138571 -0.00669653 0 0.0139177
-0.00664864 0 -0.00319452 0.0151003 0 0.00320133 0.0151053 0 -0.0154877 0.000155282
0 -0.0138571 0.00694702 0 -0.00451419 0.0148583 0 0.0045263 0.0148673 0
0.00928347 -0.0124665 0 -0.00923755 -0.0125028 0 0.0155453 0.000200444 0 -0.0154877
-0.00156548 0 0.0139177 0.00699399 0 -0.0154877 0.00175466 0 -0.0107333 -0.011318
0 0.0107879 -0.0112748 0 0.0155453 -0.00152021 0 0.0155453 0.00179972 0
0.00781802 -0.0136273 0 -0.00778421 -0.0136541 0 -0.002 0.0156411 0 0.002
0.0156411 0 -0.000730172 0.0157833 0 0.000730172 0.0157833 0 -0.0154877 0.0032412
0 -0.0154877 -0.00341685 0 0.0155453 0.00328617 0 -0.0122727 -0.0100985 0
0.0155453 -0.00337146 0 0.0123323 -0.0100514 0 -0.0138571 0.00798004 0 0.0139177
0.00802694 0 0.00639053 -0.0147581 0 -0.00637208 -0.0147727 0 -0.00451419 0.0154432
0 0.0045263 0.0154521 0 -0.00319452 0.0157843 0 0.00320133 0.0157893 0
-0.0154877 0.00462288 0 0.0155453 0.00466776 0 -0.0154877 -0.00540874 0 -0.0138571
-0.00884348 0 0.0155453 -0.00536322 0 0.0139177 -0.00879545 0 -0.0138571 0.00894019
0 -0.002 0.0164411 0 0.002 0.0164411 0 0.0139177 0.00898702 0
-0.0154877 0.00590709 0 -0.005 -0.0158596 0 0.005 -0.0158596 0 0.0155453
0.00595189 0 -0.00451419 0.0160757 0 -0.000726854 0.0166828 0 0.000726854 0.0166828
0 0.0045263 0.0160846 0 -0.00319452 0.016524 0 0.00320133 0.016529 0
-0.00345386 -0.0165523 0 0.00345386 -0.0165523 0 -0.0138571 0.0098326 0 -0.00597213
0.0159359 0 0.00598764 0.0159474 0 -0.0154877 0.00710071 0 0.0139177 0.00987937
0 -0.00176404 -0.0169864 0 0.00176404 -0.0169864 0 0.0155453 0.00714543 0
-2.76391e-19 -0.0171343 0 -0.0171658 -0.000247278 0 0.0172162 -0.000207752 0 -0.0171658
0.00147028 0 -0.0154877 -0.0075518 0 0.0155453 -0.00750615 0 0.0172162 0.00150971
0 -0.0171658 -0.00209519 0 0.0172162 -0.00205556 0 0.0107879 -0.0135925 0
-0.0107333 -0.0136359 0 -0.00451419 0.0167597 0 0.0045263 0.0167686 0 -0.002
0.0173062 0 0.002 0.0173062 0 -0.0171658 0.00306667 0 -0.0122727 -0.0124125
0 0.00928347 -0.0147881 0 0.0123323 -0.0123652 0 -0.00923755 -0.0148246 0
0.0172162 0.00310601 0 -0.0154877 0.00821012 0 -0.00597213 0.0165208 0 0.00598764
0.0165323 0 0.0155453 0.00825477 0 -0.00319452 0.017324 0 0.00320133 0.017329
0 -0.0171658 -0.00408336 0 -0.000723266 0.0176555 0 0.000723266 0.0176555 0
0.0172162 -0.00404362 0 -0.0171658 0.00455044 0 0.00781802 -0.0159527 0 -0.00778421
-0.0159796 0 -0.0138571 -0.0111534 0 0.0139177 -0.0111052 0 0.0172162 0.0045897
0 -0.0154877 0.00924127 0 -0.00451419 0.0174994 0 0.0045263 0.0175084 0
0.0155453 0.00928585 0 -0.0171658 0.00592954 0 -0.00597213 0.0171533 0 0.00598764
0.0171648 0 0.0172162 0.00596872 0 0.00639053 -0.0170872 0 -0.00637208 -0.0171018
0 -0.0171658 -0.00622243 0 0.0172162 -0.00618257 0 -0.002 0.0182418 0
0.002 0.0182418 0 -0.0154877 -0.00985753 0 0.0155453 -0.00981172 0 -0.00319452
0.0181891 0 0.00320133 0.0181941 0 -0.0154877 0.0101997 0 0.0155453 0.0102442
0 -0.0171658 0.00721136 0 0.0172162 0.00725047 0 -0.000719385 0.0187075 0
0.000719385 0.0187075 0 -0.00758282 0.0171264 0 0.00759938 0.0171387 0 -0.00597213
0.0178373 0 0.00598764 0.0178488 0 -0.00451419 0.0182994 0 0.0045263 0.0183083
0 -0.005 -0.0181922 0 0.005 -0.0181922 0 -0.018893 -0.00073496 0
-0.018893 0.0011094 0 0.0189314 -0.000704684 0 0.0189314 0.0011396 0 -0.0154877
0.0110905 0 -0.018893 -0.0027193 0 -0.018893 0.00282365 0 -0.0171658 0.00840275
0 0.0189314 -0.00268894 0 0.0155453 0.0111349 0 0.0189314 0.00285377 0
-0.00344538 -0.0188361 0 0.00344538 -0.0188361 0 -0.0171658 -0.00852385 0 0.0172162
0.00844179 0 0.0172162 -0.00848386 0 -0.00758282 0.0177113 0 0.00759938 0.0177235
0 -0.0122727 -0.0149021 0 0.0123323 -0.0148546 0 -0.00175719 -0.0192397 0
[...]
CELL_DATA 15677
FIELD attributes 1
U 3 15677 float
-0.304871 10.2652 0 0.190475 10.9192 0 -0.101143 9.44667 0 0.0315568 10.9901
0 0.118845 10.7323 0 -0.0119272 8.75836 0 0.0455279 11.0075 0
0.0144842 10.9815 0 0.0577131 10.4719 0 0.0115305 8.22934 0 0.0466952
11.0122 0 0.0433906 11.0311 0 0.026093 10.9286 0 0.0319077 10.1908
0 0.0113233 7.85613 0 0.0440124 11.0135 0 0.0424061 11.0439 0
0.0428081 11.0209 0 0.0332379 10.8603 0 0.0213712 9.90294 0 0.00644156
7.61196 0 0.0413775 11.0136 0 0.0404475 11.0462 0 0.0402097 11.0448
0 0.039895 11.0049 0 0.0328242 10.7692 0 0.0159527 9.63761 0
0.00250528 7.45878 0 0.0386369 11.0131 0 0.0389906 11.0453 0 0.0393855
11.0533 0 0.0385049 11.0445 0 0.0358523 10.9826 0 0.0288597 10.6571
0 0.0121632 9.41249 0 0.000563084 7.36228 0 0.0356117 11.0123 0
0.0373751 11.0435 0 0.0387171 11.056 0 0.0384532 11.0587 0 0.0360554
11.0421 0 0.0318446 10.9528 0 0.0240813 10.5327 0 0.00902251 9.2375
0 1.65571e-05 7.30015 0 0.0323303 11.0113 0 0.0354654 11.0411 0
0.0376283 11.0557 0 0.0378932 11.064 0 0.0361247 11.0634 0 0.0329217
11.0364 0 0.0284241 10.9174 0 0.019491 10.3981 0 0.00646093 9.10675
0 -0.000237314 7.25758 0 0.0288547 11.0101 0 0.0333346 11.0382 0
0.0362312 11.054 0 0.0369482 11.0652 0 0.0355666 11.0717 0 0.03297
11.0663 0 0.0298262 11.029 0 0.0254189 10.8759 0 0.0154652 10.2695
0 0.00440669 9.0119 0 -0.000468 7.2331 0 0.0252625 11.0089 0
0.0310057 11.0348 0 0.0345747 11.0514 0 0.0357307 11.0644 0 0.0346582
11.0746 0 0.0324181 11.0785 0 0.0297835 11.0688 0 0.0268387 11.0213
0 0.0222129 10.8306 0 0.0118439 10.1594 0 0.00266601 8.94599 0
-0.000671862 7.22157 0 0.0215493 11.0077 0 0.0284842 11.0312 0 0.0326512
11.0481 0 0.0342483 11.0623 0 0.033461 11.0747 0 0.031474 11.0833
0 0.0291242 11.0853 0 0.0266373 11.0725 0 0.0235515 11.0144 0
0.0185176 10.7846 0 0.00844906 10.0706 0 0.00110019 8.90396 0 -0.00108771
7.22358 0 0.0178434 11.0065 0 0.0258757 11.0273 0 0.0304465 11.0442
0 0.0324848 11.0592 0 0.031979 11.0731 0 0.0301919 11.0844 0
0.0279929 11.0924 0 0.0257171 11.0938 0 0.023152 11.0785 0 0.019865
11.009 0 0.014397 10.7411 0 0.00514025 10.0054 0 -0.00054309 8.88299
0 -0.00170843 7.23889 0 0.0146469 11.0053 0 0.0231908 11.0233 0
0.0279878 11.0398 0 0.0304227 11.0554 0 0.0302032 11.0703 0 0.0285878
11.0835 0 0.0264603 11.0948 0 0.0242264 11.1033 0 0.021825 11.105
0 0.0191295 11.0875 0 0.0156743 11.0063 0 0.00992091 10.7052 0
0.00166605 9.96289 0 -0.00221397 8.88111 0 -0.00237554 7.26785 0 0.0120668
11.0043 0 0.0206464 11.0196 0 0.0253105 11.0351 0 0.0280484 11.0508
0 0.0281174 11.0666 0 0.0266569 11.0811 0 0.0245519 11.0946 0
0.0222575 11.107 0 0.0198171 11.117 0 0.0172262 11.1197 0 0.0143851
11.1005 0 0.0107758 11.0078 0 0.00503292 10.6802 0 -0.00191536 9.9422
0 -0.00410392 8.89755 0 -0.0032021 7.3106 0 0.00991264 11.0034 0
0.0183814 11.0164 0 0.0227107 11.0306 0 0.0253674 11.0457 0 0.025702
11.062 0 0.0243825 11.0776 0 0.0222652 11.0926 0 0.0198391 11.1075
0 0.0172359 11.122 0 0.0145248 11.1342 0 0.0117313 11.1386 0
0.0087338 11.1184 0 0.00507698 11.0155 0 -0.000330386 10.6684 0 -0.00578061
9.94225 0 -0.00619317 8.9313 0 -0.00411917 7.36735 0 0.0082433 11.0027
0 0.0163591 11.0136 0 0.020361 11.0266 0 0.0226897 11.0407 0
0.0229461 11.0566 0 0.0217433 11.0731 0 0.0195843 11.0893 0 0.0169689
11.1059 0 0.0141084 11.1232 0 0.0111307 11.1406 0 0.00813494 11.1559
0 0.00513862 11.1628 0 0.00206312 11.1422 0 -0.00145757 11.0309 0
-0.00619781 10.6712 0 -0.00997005 9.96211 0 -0.00849352 8.98229 0 -0.005117
7.43786 0 0.00685921 11.0021 0 0.0144566 11.0112 0 0.0181994 11.0231
0 0.0202165 11.0362 0 0.0201532 11.0511 0 0.0187245 11.0675 0
0.0164895 11.0848 0 0.0136323 11.1028 0 0.0104297 11.1219 0 0.00706777
11.1424 0 0.00369676 11.1635 0 0.000418171 11.1828 0 -0.00270855 11.1931
0 -0.00570875 11.1731 0 -0.00884897 11.0557 0 -0.0126071 10.6899 0
-0.0145166 10.0008 0 -0.0109896 9.04973 0 -0.00618284 7.52196 0 0.0057225
11.0017 0 0.0127692 11.0093 0 0.0161823 11.0201 0 0.0178892 11.0321
0 0.0175446 11.0461 0 0.0156535 11.0617 0 0.0129675 11.0791 0
0.00981304 11.0982 0 0.00618452 11.1188 0 0.00232598 11.1414 0 -0.00156255
11.166 0 -0.00532422 11.1917 0 -0.00881633 11.2157 0 -0.0119295 11.2303
0 -0.0146378 11.212 0 -0.0171259 11.0912 0 -0.0195732 10.7246 0
-0.0194172 10.0578 0 -0.0136743 9.13316 0 -0.00729829 7.61896 0 0.00478932
11.0014 0 0.0112477 11.0078 0 0.0143268 11.0174 0 0.0157106 11.0285
0 0.0150719 11.0414 0 0.0127808 11.0562 0 0.00939825 11.0729 0
0.00550373 11.0922 0 0.00135929 11.114 0 -0.00311338 11.1381 0 -0.00766069
11.165 0 -0.0120734 11.1946 0 -0.0161546 11.2258 0 -0.0197131 11.2556
0 -0.0226038 11.2753 0 -0.0247655 11.26 0 -0.0262893 11.1383 0
-0.0270816 10.7758 0 -0.0246524 10.1321 0 -0.0165242 9.23179 0 -0.00846413
7.72821 0 0.0040488 11.0011 0 0.00988031 11.0066 0 0.0126367 11.0152
0 0.0136868 11.0252 0 0.0127536 11.0372 0 0.0100615 11.051 0
0.00607249 11.0669 0 0.00117098 11.0855 0 -0.00404448 11.1076 0 -0.00926248
11.133 0 -0.0146229 11.1616 0 -0.0198592 11.1937 0 -0.0247233 11.2291
0 -0.0289712 11.2667 0 -0.03238 11.303 0 -0.0347873 11.3288 0
-0.0360946 11.3179 0 -0.0363099 11.1977 0 -0.0351064 10.8431 0 -0.0302023
10.2229 0 -0.019524 9.34489 0 -0.00965979 7.84897 0 0.00348082 11.001
0 0.00871383 11.0056 0 0.011098 11.0133 0 0.0118252 11.0224 0
0.010601 11.0333 0 0.00752253 11.0461 0 0.0029408 11.061 0 -0.00283869
11.0788 0 -0.00943695 11.1002 0 -0.0161096 11.1259 0 -0.0224618 11.1558
0 -0.0287168 11.1898 0 -0.0345694 11.2281 0 -0.0397254 11.2703 0
-0.0439102 11.3152 0 -0.0468906 11.3589 0 -0.0484909 11.3916 0 -0.04859
11.386 0 -0.0471273 11.2699 0 -0.0436054 10.9261 0 -0.0360273 10.3292
0 -0.0226321 9.47137 0 -0.0108548 7.98004 0 0.0030405 11.0008 0
0.00775905 11.0048 0 0.00975433 11.0117 0 0.0101242 11.0199 0 0.00862394
11.0298 0 0.00518248 11.0415 0 3.81367e-05 11.0553 0 -0.00658636 11.0721
0 -0.0143939 11.0926 0 -0.0229017 11.1175 0 -0.0311546 11.1478 0
-0.0386615 11.1833 0 -0.0457423 11.2236 0 -0.0520458 11.269 0 -0.0572477
11.3189 0 -0.061066 11.3718 0 -0.0632658 11.4236 0 -0.0636789 11.464
0 -0.0621806 11.465 0 -0.0586612 11.3548 0 -0.0525139 11.024 0
-0.0420558 10.4497 0 -0.0257994 9.60998 0 -0.0120357 8.12016 0 0.00269295
11.0007 0 0.00697397 11.0043 0 0.00863724 11.0105 0 0.00864583 11.0178
0 0.00682699 11.0266 0 0.00305511 11.0372 0 -0.00260894 11.0499 0
-0.0100287 11.0655 0 -0.0189935 11.0848 0 -0.0291109 11.1088 0 -0.0397404
11.1382 0 -0.0496596 11.1741 0 -0.058263 11.2161 0 -0.0660014 11.2638
0 -0.0724933 11.3171 0 -0.077409 11.3755 0 -0.0804733 11.4371 0
-0.0814743 11.4977 0 -0.08027 11.5464 0 -0.0767539 11.5547 0 -0.0707924
11.4522 0 -0.0617239 11.1359 0 -0.0482298 10.5831 0 -0.0289884 9.75935
0 -0.0131913 8.26801 0 0.00241431 11.0006 0 0.00632583 11.0038 0
0.00771449 11.0095 0 0.0074269 11.016 0 0.00528138 11.0238 0 0.00114953
11.0333 0 -0.00498078 11.0448 0 -0.0131309 11.0591 0 -0.0231825 11.077
0 -0.0348385 11.0997 0 -0.0475575 11.128 0 -0.0604916 11.1629 0
-0.0720875 11.2054 0 -0.0816232 11.2551 0 -0.0897421 11.3111 0 -0.0960603
11.3732 0 -0.100261 11.4407 0 -0.102104 11.5117 0 -0.101424 11.5814
0 -0.0981351 11.6389 0 -0.0921789 11.6552 0 -0.0833983 11.5615 0
-0.0711288 11.2604 0 -0.0544769 10.7281 0 -0.032163 9.91804 0 -0.014301
8.4222 0 0.00218787 11.0006 0 0.00578654 11.0035 0 0.0069463 11.0087
0 0.00642725 11.0146 0 0.00402427 11.0215 0 -0.000457058 11.0298 0
-0.00706338 11.0399 0 -0.0158661 11.0528 0 -0.0269159 11.0693 0 -0.0400184
11.0903 0 -0.0547372 11.1172 0 -0.0703283 11.1508 0 -0.0856823 11.1922
0 -0.0988592 11.2425 0 -0.109042 11.3008 0 -0.117148 11.366 0
-0.122817 11.4377 0 -0.125779 11.515 0 -0.125859 11.5957 0 -0.122976
11.6749 0 -0.117114 11.7413 0 -0.108276 11.7661 0 -0.0963388 11.6821
0 -0.0806411 11.3964 0 -0.0607175 10.8831 0 -0.0352848 10.0845 0
-0.0153534 8.58127 0 0.00200168 11.0005 0 0.00533491 11.0032 0 0.00630303
11.008 0 0.00560365 11.0134 0 0.00300968 11.0196 0 -0.00173191 11.0268
0 -0.0087716 11.0355 0 -0.0182147 11.0468 0 -0.0301584 11.0616 0
-0.0445934 11.0809 0 -0.0611971 11.1059 0 -0.0793379 11.1379 0 -0.0980114
11.178 0 -0.115799 11.227 0 -0.130333 11.2861 0 -0.140743 11.3541
0 -0.148317 11.4293 0 -0.152755 11.5112 0 -0.153868 11.5986 0
-0.151586 11.6893 0 -0.145932 11.778 0 -0.136996 11.8533 0 -0.12486
11.8867 0 -0.109451 11.8128 0 -0.0901474 11.5424 0 -0.0668775 11.0466
0 -0.0383208 10.2572 0 -0.0163506 8.74382 0 0.00184701 11.0004 0
0.00495434 11.0029 0 0.00576122 11.0074 0 0.00492242 11.0124 0 0.00218973
11.0179 0 -0.00273106 11.0243 0 -0.0100799 11.0317 0 -0.0200808 11.0413
0 -0.0328829 11.0542 0 -0.0485168 11.0716 0 -0.0668646 11.0945 0
-0.0874179 11.1244 0 -0.109289 11.1625 0 -0.131158 11.2101 0 -0.151266
11.2678 0 -0.16679 11.3368 0 -0.176867 11.4154 0 -0.183257 11.5013
0 -0.185769 11.5938 0 -0.184343 11.6917 0 -0.17905 11.7923 0
-0.17005 11.8904 0 -0.157546 11.9745 0 -0.141732 12.0163 0 -0.122582
11.9525 0 -0.0995364 11.6969 0 -0.0728945 11.2169 0 -0.0412507 10.4345
0 -0.0172082 8.90874 0 0.0017174 11.0004 0 0.00463177 11.0027 0
0.00530223 11.007 0 0.00435665 11.0115 0 0.0015259 11.0166 0 -0.00351119
11.0221 0 -0.0110606 11.0285 0 -0.0214492 11.0365 0 -0.0349784 11.0472
0 -0.0517521 11.0623 0 -0.0716785 11.0829 0 -0.0944755 11.1103 0
-0.119386 11.1461 0 -0.145205 11.1916 0 -0.170258 11.2478 0 -0.19243
11.3154 0 -0.208416 11.3953 0 -0.217431 11.4852 0 -0.221852 11.5824
0 -0.221653 11.6859 0 -0.216947 11.7942 0 -0.207975 11.9045 0
-0.195056 12.0117 0 -0.178525 12.104 0 -0.158688 12.1539 0 -0.135588
12.1 0 -0.108709 11.8583 0 -0.0787254 11.3923 0 -0.0440062 10.6151
0 -0.0185207 9.07325 0 0.00160795 11.0004 0 0.00435683 11.0026 0
0.00491105 11.0066 0 0.00388485 11.0108 0 0.000987282 11.0154 0 -0.004118
11.0202 0 -0.0117845 11.0257 0 -0.0224158 11.0323 0 -0.0364436 11.0411
0 -0.0541673 11.0535 0 -0.0755895 11.0713 0 -0.100431 11.096 0
-0.128186 11.129 0 -0.15778 11.1718 0 -0.187642 11.2257 0 -0.215723
11.2917 0 -0.239517 11.3703 0 -0.255251 11.4621 0 -0.262331 11.564
0 -0.263894 11.6728 0 -0.260131 11.7873 0 -0.251369 11.9058 0
-0.238049 12.0255 0 -0.220658 12.1411 0 -0.199681 12.2412 0 -0.175534
12.2986 0 -0.148329 12.2539 0 -0.117593 12.0251 0 -0.0842991 11.5716
0 -0.0472189 10.7969 0 -0.0197485 9.26707 0 0.00151486 11.0003 0
0.00412127 11.0024 0 0.00457766 11.0063 0 0.00348969 11.0102 0 0.000549216
11.0144 0 -0.00458807 11.0186 0 -0.0123087 11.0232 0 -0.0230716 11.0286
0 -0.0374057 11.0357 0 -0.0557778 11.0457 0 -0.0784377 11.0602 0
-0.10522 11.0816 0 -0.135586 11.1114 0 -0.168735 11.151 0 -0.203225
11.202 0 -0.237085 11.2656 0 -0.267833 11.3426 0 -0.29262 11.4332
0 -0.307218 11.5375 0 -0.311357 11.652 0 -0.30908 11.7724 0
-0.300852 11.8978 0 -0.287243 12.0262 0 -0.268918 12.1547 0 -0.246552
12.278 0 -0.220764 12.385 0 -0.192081 12.4492 0 -0.160695 12.413
0 -0.126096 12.1959 0 -0.0899996 11.7527 0 -0.0500469 11 0
-0.0200714 9.46624 0 0.00143512 11.0003 0 0.00391863 11.0023 0 0.00429064
11.006 0 0.00315717 11.0097 0 0.000191985 11.0135 0 -0.00495054 11.0173
0 -0.0126787 11.0211 0 -0.0234897 11.0255 0 -0.0379831 11.031 0
-0.0567515 11.0388 0 -0.0802572 11.0503 0 -0.108643 11.0677 0 -0.141499
11.0935 0 -0.177939 11.1295 0 -0.216819 11.1769 0 -0.256273 11.2373
0 -0.293872 11.3119 0 -0.326736 11.401 0 -0.351695 11.5044 0
-0.364109 11.622 0 -0.364176 11.7492 0 -0.357005 11.8813 0 -0.343382
12.0171 0 -0.324153 12.1547 0 -0.300218 12.2912 0 -0.27243 12.4214
0 -0.241537 12.5343 0 -0.208173 12.6043 0 -0.172562 12.5758 0
-0.134423 12.3688 0 -0.0954179 11.9551 0 -0.0518904 11.2229 0 -0.0204736
9.661 0 0.00136627 11.0003 0 0.00374372 11.0022 0 0.00404247 11.0057
0 0.00287745 11.0092 0 -0.000100202 11.0127 0 -0.00522857 11.0161 0
-0.0129304 11.0193 0 -0.0237282 11.0227 0 -0.0382706 11.0269 0 -0.0572423
11.0327 0 -0.0812675 11.0415 0 -0.110756 11.0552 0 -0.145677 11.0762
0 -0.185277 11.1074 0 -0.228255 11.1507 0 -0.273056 11.2072 0
-0.317337 11.2784 0 -0.358216 11.3651 0 -0.392434 11.4674 0 -0.416544
11.5844 0 -0.425566 11.7156 0 -0.420335 11.8555 0 -0.407182 11.999
0 -0.387247 12.1447 0 -0.361668 12.2907 0 -0.331579 12.4343 0
-0.297999 12.5703 0 -0.261793 12.6881 0 -0.223652 12.763 0 -0.184
12.7407 0 -0.14277 12.5626 0 -0.100236 12.178 0 -0.0539092 11.4419
0 -0.0209045 9.84925 0 0.00130699 11.0003 0 0.00359197 11.0021 0
0.00382818 11.0055 0 0.0026405 11.0088 0 -0.000339809 11.0121 0 -0.0054405
11.015 0 -0.0130922 11.0177 0 -0.0238329 11.0203 0 -0.0383433 11.0232
0 -0.0573734 11.0273 0 -0.0816675 11.0337 0 -0.111842 11.044 0
-0.148196 11.0605 0 -0.190435 11.0859 0 -0.237383 11.1237 0 -0.287224
11.1757 0 -0.337943 11.2427 0 -0.386701 11.3259 0 -0.430172 11.4259
0 -0.464751 11.5422 0 -0.486804 11.6734 0 -0.491101 11.8184 0
-0.479291 11.9708 0 -0.459064 12.1251 0 -0.431941 12.2799 0 -0.399351
12.4334 0 -0.362645 12.5829 0 -0.322994 12.7236 0 -0.281328 12.8453
0 -0.238471 12.9237 0 -0.195709 12.9258 0 -0.15069 12.7763 0
-0.104844 12.3977 0 -0.0558503 11.6545 0 -0.0212633 10.0296 0 0.00345926
11.0021 0 0.00123528 11.0003 0 0.00364153 11.0053 0 0.00243876 11.0085
0 -0.000536811 11.0115 0 -0.00560084 11.0141 0 -0.0131864 11.0163 0
-0.0238394 11.0181 0 -0.0382601 11.02 0 -0.0572423 11.0226 0 -0.0816167
11.0268 0 -0.112154 11.0341 0 -0.149415 11.0464 0 -0.193509 11.0664
0 -0.243805 11.0974 0 -0.298581 11.143 0 -0.355426 11.205 0
-0.411845 11.2838 0 -0.464489 11.3804 0 -0.509612 11.4948 0 -0.543341
11.6258 0 -0.561965 11.7714 0 -0.560111 11.9302 0 -0.540419 12.0947
0 -0.512062 12.259 0 -0.476946 12.4218 0 -0.436771 12.5817 0
-0.393085 12.736 0 -0.347161 12.8803 0 -0.30001 13.0044 0 -0.25385
13.104 0 -0.207163 13.1301 0 -0.157906 12.9874 0 -0.109019 12.6119
0 -0.057511 11.859 0 -0.0215315 10.2016 0 0.00347607 11.0052 0
0.00330326 11.002 0 0.00114848 11.0002 0 0.00226542 11.0082 0 -0.000699173
11.011 0 -0.00572072 11.0133 0 -0.0132303 11.015 0 -0.0237756 11.0163
0 -0.0380666 11.0172 0 -0.0569249 11.0185 0 -0.0812411 11.0207 0
-0.1119 11.0252 0 -0.149657 11.0338 0 -0.194947 11.0488 0 -0.24763
11.0732 0 -0.306618 11.1109 0 -0.369534 11.1657 0 -0.433316 11.2392
0 -0.494962 11.3313 0 -0.55063 11.4425 0 -0.596218 11.5721 0
-0.627687 11.7184 0 -0.641381 11.8786 0 -0.631898 12.0507 0 -0.603043
12.2265 0 -0.56557 12.3998 0 -0.521747 12.5697 0 -0.473525 12.7346
0 -0.422588 12.8926 0 -0.370295 13.039 0 -0.319547 13.183 0
-0.269174 13.3031 0 -0.217482 13.3321 0 -0.164363 13.1936 0 -0.1126
12.8186 0 -0.0588802 12.0547 0 -0.0217016 10.3648 0 0.0021112 11.0079
0 0.00329411 11.005 0 0.00310598 11.0019 0 0.00106529 11.0002 4.28866e-19
-0.000834744 11.0105 0 -0.00580874 11.0126 0 -0.013237 11.014 0 -0.0236628
11.0146 0 -0.037798 11.0148 0 -0.0564802 11.0148 0 -0.0806388 11.0153
0 -0.111239 11.0174 0 -0.149184 11.0226 0 -0.195157 11.033 0
-0.249412 11.0515 0 -0.31145 11.0814 0 -0.37962 11.1271 0 -0.450796
11.1926 0 -0.521186 11.2791 0 -0.587302 11.3858 0 -0.644858 11.5127
0 -0.689487 11.6583 0 -0.717119 11.8201 0 -0.724289 11.9947 0
-0.705691 12.1795 0 -0.666458 12.3657 0 -0.61898 12.5468 0 -0.565859
12.7223 0 -0.509233 12.8912 0 -0.450883 13.0513 0 -0.394605 13.2173
0 -0.339264 13.3804 0 -0.282944 13.5001 0 -0.226706 13.5296 0
-0.169952 13.3931 0 -0.11561 13.0171 0 -0.0599763 12.241 0 -0.0217771
10.5189 0 -0.00095821 11.0102 0 0.00195974 11.0076 0 0.00307861 11.0047
1.87758e-18 0.00291477 11.0017 -1.35784e-18 0.000985259 11.0002 -8.70378e-19 -0.00587323 11.012 0
-0.013216 11.013 0 -0.0235168 11.0132 0 -0.0374814 11.0126 0 -0.0559533
11.0116 0 -0.0798857 11.0106 0 -0.110298 11.0105 0 -0.1482 11.0127
0 -0.194464 11.019 0 -0.249655 11.0319 0 -0.313749 11.0547 0
-0.385786 11.0913 0 -0.46346 11.1464 0 -0.542758 11.2242 0 -0.619134
11.3253 0 -0.688667 11.448 0 -0.746706 11.5914 0 -0.788745 11.7535
0 -0.810826 11.9308 0 -0.809834 12.1193 0 -0.78068 12.3159 0
-0.729952 12.5113 0 -0.671713 12.699 0 -0.608825 12.8789 0 -0.543559
13.0501 0 -0.480724 13.2298 0 -0.419354 13.4144 0 -0.357026 13.5756
0 -0.295241 13.6929 0 -0.234747 13.721 0 -0.174698 13.5849 0
-0.118093 13.2066 0 -0.0608254 12.4176 0 -0.0217706 10.6637 0 -0.00593627
11.0115 0 -0.00104103 11.0097 -3.80086e-18 0.00179189 11.0071 -1.97695e-18 0.00286896 11.0044
9.53165e-19 0.0027269 11.0016 -9.18221e-19 0.000908448 11.0002 0 -0.0131762 11.0122 0
-0.0233486 11.0119 0 -0.0371365 11.0107 0 -0.0553785 11.0087 0 -0.0790396
11.0064 0 -0.109174 11.0044 0 -0.146867 11.0039 0 -0.193129 11.0065
0 -0.248765 11.0144 0 -0.314132 11.0306 0 -0.388839 11.0589 0
-0.471377 11.1035 0 -0.558635 11.1696 0 -0.645627 11.2613 0 -0.727056
11.3784 0 -0.798653 11.5182 0 -0.855518 11.679 0 -0.893154 11.8578
0 -0.907884 12.0504 0 -0.897099 12.252 0 -0.856032 12.4593 0
-0.792834 12.6625 0 -0.723222 12.8554 0 -0.650235 13.0381 0 -0.579877
13.2291 0 -0.511298 13.4273 0 -0.441725 13.6095 0 -0.372898 13.7669
0 -0.306003 13.8799 0 -0.241622 13.9052 0 -0.178659 13.7683 0
-0.120095 13.3867 0 -0.0614575 12.5843 0 -0.0216963 10.7994 0 -0.01315
11.0114 0 -0.00590398 11.0108 7.99957e-18 -0.00109008 11.0091 0 0.00163088 11.0067
2.00573e-18 0.00266638 11.0042 5.85152e-22 0.00254293 11.0015 0 0.000834841 11.0002 0
-0.0231674 11.0108 0 -0.0367758 11.009 0 -0.0547807 11.0062 0 -0.0781446
11.0027 0 -0.107942 10.999 0 -0.145308 10.9961 0 -0.191355 10.9954
0 -0.247066 10.9988 0 -0.313099 11.0091 0 -0.389522 11.0296 0
-0.475497 11.0645 0 -0.568819 11.1187 0 -0.665468 11.1973 0 -0.759411
11.3046 0 -0.844632 11.4392 0 -0.916649 11.5971 0 -0.970459 11.7758
0 -1.00175 11.9712 0 -1.00729 12.1784 0 -0.985128 12.3922 0
-0.930922 12.6088 0 -0.854448 12.8185 0 -0.773011 13.0148 0 -0.694193
13.2176 0 -0.617268 13.4273 0 -0.53904 13.6229 0 -0.461743 13.8007
0 -0.38685 13.9525 0 -0.315257 14.0601 0 -0.247411 14.0816 0
-0.181901 13.9429 0 -0.121667 13.5571 0 -0.0619031 12.741 0 -0.021567
10.9261 0 -0.0230205 11.0098 0 -0.0129517 11.0106 5.02411e-22 -0.00575313 11.01
0 -0.00113701 11.0085 -2.11072e-18 0.00147879 11.0063 4.18728e-22 0.00247106 11.004 0
0.00236293 11.0014 0 0.000764431 11.0001 0 -0.0364091 11.0075 0 -0.0541748
11.004 0 -0.077232 10.9994 0 -0.106657 10.9943 0 -0.143619 10.9892
0 -0.189299 10.9856 0 -0.244814 10.985 0 -0.31105 10.9898 0
-0.388444 11.0032 0 -0.476709 11.0291 0 -0.574413 11.0722 0 -0.678549
11.1375 0 -0.784089 11.2305 0 -0.883899 11.355 0 -0.971325 11.5083
0 -1.04185 11.6851 0 -1.09055 11.8818 0 -1.11347 12.0934 0
-1.108 12.3145 0 -1.07298 12.5391 0 -1.00456 12.7636 0 -0.914181
12.9778 0 -0.826027 13.1949 0 -0.73963 13.4169 0 -0.651328 13.624
0 -0.563925 13.8149 0 -0.479398 13.9865 0 -0.398919 14.1316 0
-0.323098 14.2329 0 -0.252205 14.2497 0 -0.184495 14.1083 0 -0.122861
13.7178 0 -0.0621884 12.8879 0 -0.0213939 11.0441 0 -0.0361045 11.0062
0 -0.022595 11.0087 -4.424e-18 -0.0125066 11.0096 0 -0.00560695 11.0092 0
-0.00117066 11.0079 6.4207e-18 0.0013355 11.006 0 0.00228281 11.0037 0 0.00218704
11.0013 1.91336e-18 0.000697224 11.0001 0 -0.0535711 11.002 0 -0.0763201 10.9965
0 -0.105361 10.99 0 -0.14187 10.9831 0 -0.18708 10.9769 0
-0.242204 10.9727 0 -0.308301 10.9727 0 -0.386095 10.9797 0 -0.475743
10.9973 0 -0.576465 11.0299 0 -0.686131 11.0826 0 -0.800823 11.1609
0 -0.914418 11.2699 0 -1.01866 11.4131 0 -1.10638 11.5863 0
-1.17327 11.7825 0 -1.21466 11.997 0 -1.22717 12.2243 0 -1.20896
12.458 0 -1.15975 12.692 0 -1.07622 12.9224 0 -0.977989 13.1583
0 -0.881012 13.3953 0 -0.781157 13.6149 0 -0.681958 13.8171 0
-0.585944 14.0015 0 -0.49474 14.1658 0 -0.409215 14.3034 0 -0.329644
14.3977 0 -0.256101 14.4092 0 -0.186516 14.2645 0 -0.123724 13.8688
0 -0.0623387 13.0254 0 -0.0211873 11.1539 0 -0.0530662 11.0003 0
-0.0353765 11.0047 0 -0.0217382 11.0074 -4.83475e-18 -0.0120781 11.0086 -4.66584e-18 -0.00544142
11.0085 -9.00004e-18 -0.00119097 11.0074 0 0.00120111 11.0056 -4.17984e-18 0.00210186 11.0035
-4.02581e-18 0.00201523 11.0013 1.93763e-18 0.000633076 11.0001 0 -0.0754197 10.994 0
-0.104074 10.9863 0 -0.140114 10.9777 0 -0.184791 10.9691 0 -0.239389
10.9617 0 -0.305097 10.9574 0 -0.382861 10.9586 0 -0.473191 10.9687
0 -0.575842 10.9917 0 -0.689433 11.0326 0 -0.811028 11.0967 0
-0.935694 11.1896 0 -1.05614 11.3164 0 -1.16302 11.4797 0 -1.24887