#           x             T
    -0.118946       349.927
    -0.118121       349.916
    -0.117174       349.909
    -0.116087       349.904
    -0.114839         349.9
    -0.113407       349.897
    -0.111763       349.895
    -0.109877       349.894
    -0.107712       349.893
    -0.105226       349.893
    -0.102373       349.894
   -0.0990994       349.896
   -0.0953416       349.901
   -0.0914285       349.911
    -0.087619       349.928
   -0.0838095       349.957
        -0.08        350.01
   -0.0761904       350.104
   -0.0723809       350.267
   -0.0685714       350.548
   -0.0649271       351.001
    -0.061624       351.667
   -0.0586549       352.573
   -0.0559862       353.733
   -0.0535874       355.131
   -0.0514312       356.722
   -0.0494932       358.452
   -0.0477512       360.265
   -0.0461853        362.11
   -0.0447779        363.94
   -0.0435128       365.713
   -0.0423757       367.392
   -0.0413536       368.942
   -0.0404349       370.443
     -0.03925       372.245
     -0.03775       374.425
     -0.03625       376.689
     -0.03475       378.906
     -0.03325       381.034
     -0.03175       383.035
     -0.03025        384.88
     -0.02875       386.547
     -0.02725       388.025
     -0.02575        389.29
   -0.0243993       390.297
   -0.0231362       391.094
    -0.021743       391.787
   -0.0202065       392.377
   -0.0185118       392.845
   -0.0171075       393.122
   -0.0161272       393.266
   -0.0145812       393.422
    -0.012414        393.53
   -0.0103452       393.512
  -0.00847254       393.431
  -0.00711441        393.35
  -0.00630907       393.295
  -0.00524316       393.217
  -0.00385435       393.109
  -0.00259726        393.01
  -0.00133333        392.91
            0       392.819
   0.00133333       392.744
   0.00260066       392.685
   0.00386381       392.656
   0.00525697       392.659
   0.00631696       392.687
   0.00712283       392.726
    0.0084882       392.822
    0.0103573       393.022
    0.0124188       393.345
    0.0145859       393.837
    0.0161321        394.26
     0.017115       394.562
    0.0185274       395.025
    0.0202225       395.615
    0.0217568       396.142
    0.0231456       396.567
    0.0244027       396.918
      0.02575       397.238
      0.02725       397.523
      0.02875       397.748
      0.03025       397.916
      0.03175       398.035
      0.03325       398.112
      0.03475        398.15
      0.03625       398.145
      0.03775       398.085
      0.03925       397.948
    0.0404349       397.745
    0.0413536       397.494
    0.0423757       397.118
    0.0435128       396.522
    0.0447779       395.562
    0.0461853       394.013
    0.0477511        391.55
    0.0494932       387.808
    0.0514312       382.585
    0.0535874       376.143
    0.0559862       369.317
    0.0586549       363.099
     0.061624       358.136
    0.0649271        354.62
    0.0685714       352.395
    0.0723809       351.144
    0.0761904       350.497
         0.08        350.17
    0.0838095       350.006
     0.087619       349.924
    0.0914285       349.884
    0.0953419       349.865
    0.0991002       349.857
     0.102374       349.854
     0.105227       349.854
     0.107713       349.855
     0.109878       349.856
     0.111765       349.857
     0.113408        349.86
      0.11484       349.862
     0.116088       349.866
     0.117175       349.872
     0.118122        349.88
     0.118947       349.892
     0.119665       349.904
