#           x             T
    -0.118947       349.913
    -0.118121       349.908
    -0.117174       349.903
    -0.116087       349.896
     -0.11484       349.892
    -0.113408       349.888
    -0.111764       349.886
    -0.109877       349.884
    -0.107712       349.882
    -0.105227       349.881
    -0.102374        349.88
   -0.0990995       349.879
   -0.0953416       349.879
   -0.0914285       349.881
   -0.0876191       349.888
   -0.0838095       349.901
        -0.08       349.929
   -0.0761904       349.986
   -0.0723809       350.097
   -0.0685715       350.313
   -0.0649271       350.705
    -0.061624       351.356
    -0.058655        352.36
   -0.0559862       353.804
   -0.0535874       355.731
   -0.0514313       358.108
   -0.0494932       360.824
   -0.0477512       363.718
   -0.0461853       366.632
   -0.0447779       369.436
   -0.0435128       372.033
   -0.0423757       374.372
   -0.0413536       376.441
   -0.0404349       378.384
     -0.03925       380.618
     -0.03775       383.075
     -0.03625       385.321
     -0.03475       387.235
     -0.03325       388.842
     -0.03175       390.178
     -0.03025       391.282
     -0.02875       392.192
     -0.02725       392.938
     -0.02575       393.563
   -0.0243994       394.066
   -0.0231362       394.427
    -0.021743       394.772
   -0.0202065       395.148
   -0.0189203       395.398
   -0.0180315       395.549
   -0.0166427       395.748
   -0.0145812       395.989
    -0.012414       396.239
   -0.0110231       396.361
   -0.0100402       396.434
  -0.00847254       396.536
  -0.00677747       396.613
  -0.00524316       396.667
  -0.00385435       396.694
  -0.00288618       396.701
  -0.00228892       396.697
  -0.00133333       396.689
            0       396.674
   0.00133333       396.648
     0.002289       396.623
   0.00288966       396.607
   0.00386381       396.584
   0.00525697       396.554
   0.00679351       396.528
    0.0084882       396.509
    0.0100473       396.512
    0.0110276       396.522
    0.0124188       396.553
    0.0145859       396.632
    0.0166548       396.748
    0.0180384       396.846
    0.0189282       396.916
    0.0202225       397.028
    0.0217568       397.174
    0.0231456       397.312
    0.0244027       397.441
      0.02575       397.574
      0.02725       397.711
      0.02875       397.843
      0.03025       397.969
      0.03175       398.086
      0.03325       398.196
      0.03475       398.294
      0.03625       398.375
      0.03775       398.423
      0.03925       398.417
    0.0404349       398.345
    0.0413536       398.192
    0.0423757       397.886
    0.0435128       397.289
    0.0447779       396.154
    0.0461853       394.065
    0.0477511       390.483
    0.0494932       385.044
    0.0514312       378.051
    0.0535874       370.575
    0.0559862       363.813
    0.0586549        358.46
     0.061624        354.72
    0.0649271         352.4
    0.0685714       351.102
    0.0723809       350.446
    0.0761904       350.136
         0.08        349.99
    0.0838095       349.921
     0.087619       349.888
    0.0914285       349.873
    0.0953419       349.867
    0.0991002       349.865
     0.102374       349.865
     0.105227       349.866
     0.107713       349.867
     0.109878       349.869
     0.111765       349.871
     0.113408       349.874
      0.11484       349.877
     0.116088       349.881
     0.117175       349.888
     0.118122       349.894
     0.118947         349.9
     0.119665       349.904
