# vtk DataFile Version 2.0
sampleSurface
ASCII
DATASET POLYDATA
POINTS 15978 float
-4.26165e-19 0.000133477 0 -4.18079e-19 -0.000798814 0 -4.33681e-19 0.001 0 -4.09379e-19 -0.00180187
0 -0.00181681 0.000361473 0 0.00181681 0.000361473 0 -0.00181396 -0.000575145 0
0.00181396 -0.000575145 0 -0.00181945 0.00123202 0 0.00181945 0.00123202 0 -0.00181089
-0.00158285 0 0.00181089 -0.00158285 0 -4.00018e-19 -0.00288105 0 -0.00180759 -0.00266704
0 0.00180759 -0.00266704 0 -0.00351565 8.15481e-05 0 0.00351565 8.15481e-05 0
-0.00351186 -0.000939823 0 0.00351186 -0.000939823 0 -0.00351918 0.00103087 0 0.00351918
0.00103087 0 -0.00352245 0.00191322 0 0.00352245 0.00191322 0 -3.89947e-19 -0.00404214
0 -0.00350777 -0.00203871 0 0.00350777 -0.00203871 0 -0.00180405 -0.00383352 0
0.00180405 -0.00383352 0 -0.00350338 -0.00322101 0 0.00350338 -0.00322101 0 -0.005
8.60602e-05 0 0.005 8.60602e-05 0 -0.005 -0.00103629 0 0.005 -0.00103629
0 -0.005 0.00112923 0 0.005 0.00112923 0 -3.79112e-19 -0.00529135 0
-0.00180023 -0.00508853 0 0.00180023 -0.00508853 0 -0.005 0.00209882 0 0.005
0.00209882 0 -0.005 -0.00224382 0 0.005 -0.00224382 0 -0.00349866 -0.00449304
0 0.00349866 -0.00449304 0 -0.005 0.003 0 0.005 0.003 0
-0.005 -0.003543 0 0.005 -0.003543 0 -0.00637208 2.82617e-05 0 0.00639053
4.25732e-05 0 -0.00637208 0.00114892 0 -0.00637208 -0.00117745 0 0.00639053 -0.00116311
0 0.00639053 0.00116321 0 -3.67455e-19 -0.00663538 0 -0.00179612 -0.00643879 0
0.00179612 -0.00643879 0 -0.00637208 0.00219052 0 0.00639053 0.00220479 0 -0.00349357
-0.00586162 0 0.00349357 -0.00586162 0 -0.00637208 -0.00247467 0 0.00639053 -0.00246031
0 -0.005 -0.00494079 0 0.005 -0.00494079 0 -0.00637208 0.00315864 0
0.00639053 0.00317289 0 -0.00637208 -0.00387036 0 0.00639053 -0.00385597 0 -0.00637208
0.00405846 0 0.00639053 0.00407269 0 -0.00778421 -7.99569e-05 0 0.00781802 -5.3679e-05
0 -0.00778421 0.00112388 0 0.00781802 0.00115011 0 -0.00778421 -0.00137517 0
0.00781802 -0.00134884 0 -3.54912e-19 -0.00808142 0 -0.0017917 -0.00789154 0 0.0017917
-0.00789154 0 -0.00778421 0.0022428 0 -0.0034881 -0.00733407 0 0.0034881 -0.00733407
0 0.00781802 0.00226899 0 -0.005 -0.00644467 0 0.005 -0.00644467 0
-0.00778421 -0.00276868 0 0.00781802 -0.0027423 0 -0.00637208 -0.00537197 0 0.00639053
-0.00535755 0 -0.00778421 0.00328278 0 0.00781802 0.00330893 0 -0.00778421 0.00424939
0 -0.00778421 -0.00426796 0 0.00781802 -0.00424152 0 0.00781802 0.00427551 0
-0.00923755 -0.000243565 0 0.00928347 -0.000207818 0 -0.00923755 0.00104957 0 -0.00778421
0.00514782 0 0.00928347 0.00108525 0 0.00781802 0.0051739 0 -0.00923755 -0.00163485
0 0.00928347 -0.00159903 0 -0.00637208 -0.00698755 0 0.00639053 -0.0069731 0
-0.005 -0.0080627 0 0.005 -0.0080627 0 -0.00923755 0.00225148 0 0.00928347
0.0022871 0 -0.00348222 -0.00891827 0 0.00348222 -0.00891827 0 -0.00178695 -0.00945455
0 0.00178695 -0.00945455 0 -3.41418e-19 -0.00963721 0 -0.00923755 -0.00313172 0
-0.00778421 -0.00588103 0 0.00781802 -0.00585453 0 0.00928347 -0.00309583 0 -0.00923755
0.0033686 0 0.00928347 0.00340416 0 -0.00923755 0.00440692 0 0.00928347 0.00444243
0 -0.00923755 -0.00474221 0 0.00928347 -0.00470623 0 -0.00923755 0.00537198 0
-0.0107333 -0.000467921 0 0.00928347 0.00540745 0 -0.0107333 0.000921062 0 0.0107879
-0.000425364 0 0.00639053 -0.00871127 0 -0.00637208 -0.00872575 0 0.0107879 0.000963535
0 -0.00778421 -0.00761653 0 0.00781802 -0.00758997 0 -0.0107333 -0.00196233 0
0.0107879 -0.00191968 0 -0.0107333 0.00221206 0 -0.005 -0.00980352 0 0.005
-0.00980352 0 0.0107879 0.00225445 0 -0.00923755 0.00626897 0 -0.00347589 -0.0106227
0 0.00347589 -0.0106227 0 0.00928347 0.00630439 0 -0.0107333 0.00341198 0
-0.00178183 -0.0111362 0 0.00178183 -0.0111362 0 -0.00923755 -0.00647493 0 0.00928347
-0.00643887 0 -3.26899e-19 -0.0113111 0 -0.0107333 -0.00357015 0 0.0107879 0.00345431
0 0.0107879 -0.00352741 0 -0.0107333 0.00452726 0 0.0107879 0.00456952 0
-0.0107333 -0.00530001 0 0.0107879 -0.00525717 0 -0.0107333 0.00556386 0 0.0107879
0.00560606 0 -0.000743369 0.0122055 0 0.000743369 0.0122055 0 -0.00778421 -0.00948375
0 0.00781802 -0.00945713 0 -0.0122727 0.000733061 0 -0.0122727 -0.000758799 0
0.0123323 -0.000712262 0 0.0123323 0.0007795 0 0.00639053 -0.0105814 0 -0.00637208
-0.0105959 0 -0.00923755 -0.00833916 0 -0.0122727 0.00211968 0 0.00928347 -0.00830301
0 -0.0122727 -0.00236389 0 0.0123323 0.00216603 0 0.0123323 -0.00231725 0
-0.0107333 0.00652734 0 0.0107879 0.00656947 0 -0.005 -0.0116765 0 0.005
-0.0116765 0 -0.0122727 0.00340848 0 0.0123323 0.00345474 0 -0.000741126 0.0128136
0 0.000741126 0.0128136 0 -0.0107333 -0.00716117 0 0.0107879 -0.00711821 0
-0.00346908 -0.0124565 0 0.00346908 -0.0124565 0 -0.0122727 -0.00409081 0 0.0123323
-0.00404405 0 -0.0107333 0.00742284 0 -0.00177633 -0.0129455 0 0.00177633 -0.0129455
0 -0.0122727 0.00460636 0 -3.11279e-19 -0.013112 0 0.0107879 0.00746492 0
-0.002 0.013 0 0.002 0.013 0 0.0123323 0.00465255 0 -0.0007387
0.0134712 0 0.0007387 0.0134712 0 -0.0122727 0.00571974 0 0.0123323 0.00576585
0 -0.0122727 -0.00594879 0 0.0123323 -0.00590191 0 -0.002 0.0135849 0
0.002 0.0135849 0 -0.0138571 0.000479853 0 -0.00923755 -0.0103449 0 0.00928347
-0.0103086 0 0.00781802 -0.011466 0 -0.00778421 -0.0114927 0 -0.0138571 -0.00112242
0 0.0139177 0.000527252 0 0.0139177 -0.00107491 0 -0.0138571 0.0019691 0
-0.0122727 0.00675458 0 0.0139177 0.00201639 0 0.0123323 0.00680062 0 -0.0107333
-0.00916358 0 0.00639053 -0.0125934 0 0.0107879 -0.0091205 0 -0.00637208 -0.012608
0 -0.0138571 -0.0028463 0 0.0139177 -0.00279868 0 -0.000736077 0.0141824 0
0.000736077 0.0141824 0 -0.00319452 0.0138829 0 0.00320133 0.0138879 0 -0.0138571
0.00335328 0 0.0139177 0.00340049 0 -0.002 0.0142174 0 0.002 0.0142174
0 -0.0122727 0.00771641 0 0.0123323 0.00776239 0 -0.005 -0.0136916 0
0.005 -0.0136916 0 -0.0138571 0.00463982 0 -0.0122727 -0.0079478 0 -0.0138571
-0.00470103 0 0.0123323 -0.00790078 0 0.0139177 -0.00465328 0 0.0139177 0.00468694
0 -0.00319452 0.0144678 0 0.00320133 0.0144728 0 -0.00346175 -0.0144295 0
0.00346175 -0.0144295 0 -0.00073324 0.0149515 0 0.00073324 0.0149515 0 -0.0122727
0.00861039 0 -0.00177041 -0.0148921 0 0.00177041 -0.0148921 0 -0.002 0.0149014
0 0.002 0.0149014 0 -0.0138571 0.0058356 0 -2.94473e-19 -0.0150496 0
0.0123323 0.00865631 0 0.0139177 0.00588264 0 -0.0138571 -0.00669653 0 0.0139177
-0.00664864 0 -0.00319452 0.0151003 0 0.00320133 0.0151053 0 -0.0154877 0.000155282
0 -0.0138571 0.00694702 0 -0.00451419 0.0148583 0 0.0045263 0.0148673 0
0.00928347 -0.0124665 0 -0.00923755 -0.0125028 0 0.0155453 0.000200444 0 -0.0154877
-0.00156548 0 0.0139177 0.00699399 0 -0.0154877 0.00175466 0 -0.0107333 -0.011318
0 0.0107879 -0.0112748 0 0.0155453 -0.00152021 0 0.0155453 0.00179972 0
0.00781802 -0.0136273 0 -0.00778421 -0.0136541 0 -0.002 0.0156411 0 0.002
0.0156411 0 -0.000730172 0.0157833 0 0.000730172 0.0157833 0 -0.0154877 0.0032412
0 -0.0154877 -0.00341685 0 0.0155453 0.00328617 0 -0.0122727 -0.0100985 0
0.0155453 -0.00337146 0 0.0123323 -0.0100514 0 -0.0138571 0.00798004 0 0.0139177
0.00802694 0 0.00639053 -0.0147581 0 -0.00637208 -0.0147727 0 -0.00451419 0.0154432
0 0.0045263 0.0154521 0 -0.00319452 0.0157843 0 0.00320133 0.0157893 0
-0.0154877 0.00462288 0 0.0155453 0.00466776 0 -0.0154877 -0.00540874 0 -0.0138571
-0.00884348 0 0.0155453 -0.00536322 0 0.0139177 -0.00879545 0 -0.0138571 0.00894019
0 -0.002 0.0164411 0 0.002 0.0164411 0 0.0139177 0.00898702 0
-0.0154877 0.00590709 0 -0.005 -0.0158596 0 0.005 -0.0158596 0 0.0155453
0.00595189 0 -0.00451419 0.0160757 0 -0.000726854 0.0166828 0 0.000726854 0.0166828
0 0.0045263 0.0160846 0 -0.00319452 0.016524 0 0.00320133 0.016529 0
-0.00345386 -0.0165523 0 0.00345386 -0.0165523 0 -0.0138571 0.0098326 0 -0.00597213
0.0159359 0 0.00598764 0.0159474 0 -0.0154877 0.00710071 0 0.0139177 0.00987937
0 -0.00176404 -0.0169864 0 0.00176404 -0.0169864 0 0.0155453 0.00714543 0
-2.76391e-19 -0.0171343 0 -0.0171658 -0.000247278 0 0.0172162 -0.000207752 0 -0.0171658
0.00147028 0 -0.0154877 -0.0075518 0 0.0155453 -0.00750615 0 0.0172162 0.00150971
0 -0.0171658 -0.00209519 0 0.0172162 -0.00205556 0 0.0107879 -0.0135925 0
-0.0107333 -0.0136359 0 -0.00451419 0.0167597 0 0.0045263 0.0167686 0 -0.002
0.0173062 0 0.002 0.0173062 0 -0.0171658 0.00306667 0 -0.0122727 -0.0124125
0 0.00928347 -0.0147881 0 0.0123323 -0.0123652 0 -0.00923755 -0.0148246 0
0.0172162 0.00310601 0 -0.0154877 0.00821012 0 -0.00597213 0.0165208 0 0.00598764
0.0165323 0 0.0155453 0.00825477 0 -0.00319452 0.017324 0 0.00320133 0.017329
0 -0.0171658 -0.00408336 0 -0.000723266 0.0176555 0 0.000723266 0.0176555 0
0.0172162 -0.00404362 0 -0.0171658 0.00455044 0 0.00781802 -0.0159527 0 -0.00778421
-0.0159796 0 -0.0138571 -0.0111534 0 0.0139177 -0.0111052 0 0.0172162 0.0045897
0 -0.0154877 0.00924127 0 -0.00451419 0.0174994 0 0.0045263 0.0175084 0
0.0155453 0.00928585 0 -0.0171658 0.00592954 0 -0.00597213 0.0171533 0 0.00598764
0.0171648 0 0.0172162 0.00596872 0 0.00639053 -0.0170872 0 -0.00637208 -0.0171018
0 -0.0171658 -0.00622243 0 0.0172162 -0.00618257 0 -0.002 0.0182418 0
0.002 0.0182418 0 -0.0154877 -0.00985753 0 0.0155453 -0.00981172 0 -0.00319452
0.0181891 0 0.00320133 0.0181941 0 -0.0154877 0.0101997 0 0.0155453 0.0102442
0 -0.0171658 0.00721136 0 0.0172162 0.00725047 0 -0.000719385 0.0187075 0
0.000719385 0.0187075 0 -0.00758282 0.0171264 0 0.00759938 0.0171387 0 -0.00597213
0.0178373 0 0.00598764 0.0178488 0 -0.00451419 0.0182994 0 0.0045263 0.0183083
0 -0.005 -0.0181922 0 0.005 -0.0181922 0 -0.018893 -0.00073496 0
-0.018893 0.0011094 0 0.0189314 -0.000704684 0 0.0189314 0.0011396 0 -0.0154877
0.0110905 0 -0.018893 -0.0027193 0 -0.018893 0.00282365 0 -0.0171658 0.00840275
0 0.0189314 -0.00268894 0 0.0155453 0.0111349 0 0.0189314 0.00285377 0
-0.00344538 -0.0188361 0 0.00344538 -0.0188361 0 -0.0171658 -0.00852385 0 0.0172162
0.00844179 0 0.0172162 -0.00848386 0 -0.00758282 0.0177113 0 0.00759938 0.0177235
0 -0.0122727 -0.0149021 0 0.0123323 -0.0148546 0 -0.00175719 -0.0192397 0
[...]
CELL_DATA 15677
FIELD attributes 1
U 3 15677 float
-0.304868 10.2652 0 0.190473 10.9192 0 -0.101145 9.44677 0 0.0315502 10.9901
0 0.11884 10.7324 0 -0.011927 8.75852 0 0.0455197 11.0075 0
0.0144727 10.9816 0 0.0577138 10.4721 0 0.0115344 8.22945 0 0.0466835
11.0123 0 0.0433753 11.0312 0 0.0260889 10.9288 0 0.031915 10.191
0 0.0113302 7.85607 0 0.0439969 11.0135 0 0.0423822 11.044 0
0.0428017 11.0211 0 0.0332478 10.8606 0 0.0213851 9.90298 0 0.00644997
7.61165 0 0.0413582 11.0136 0 0.0404163 11.0462 0 0.0401973 11.0451
0 0.0399054 11.0052 0 0.0328509 10.7694 0 0.0159744 9.63737 0
0.00251707 7.45818 0 0.0386128 11.0131 0 0.0389507 11.0454 0 0.0393657
11.0536 0 0.0385147 11.0448 0 0.0358853 10.9829 0 0.0288982 10.6571
0 0.012188 9.41186 0 0.000578165 7.36133 0 0.0355821 11.0123 0
0.0373237 11.0436 0 0.0386889 11.0562 0 0.0384615 11.059 0 0.0360952
11.0424 0 0.0319035 10.9529 0 0.0241365 10.5323 0 0.00905054 9.23644
0 3.2038e-05 7.29884 0 0.0322945 11.0113 0 0.035402 11.0412 0
0.0375904 11.0559 0 0.0379002 11.0643 0 0.0361711 11.0636 0 0.0329938
11.0366 0 0.028505 10.9172 0 0.0195558 10.3972 0 0.00649479 9.10523
0 -0.000220673 7.25584 0 0.028812 11.0101 0 0.0332569 11.0383 0
0.0361823 11.0542 0 0.0369531 11.0655 0 0.0356205 11.072 0 0.0330579
11.0664 0 0.0299305 11.0288 0 0.0255202 10.8754 0 0.0155377 10.268
0 0.00444478 9.0099 0 -0.000450342 7.23098 0 0.0252102 11.0089 0
0.0309114 11.0349 0 0.0345133 11.0516 0 0.0357332 11.0647 0 0.0347205
11.0749 0 0.0325239 11.0786 0 0.0299129 11.0687 0 0.0269721 11.0209
0 0.0223293 10.8296 0 0.0119219 10.1574 0 0.00270828 8.94349 0
-0.000655731 7.21899 0 0.0214969 11.0077 0 0.0283725 11.0313 0 0.0325754
11.0483 0 0.0342479 11.0626 0 0.0335327 11.0749 0 0.0315998 11.0834
0 0.0292817 11.0853 0 0.0268043 11.0721 0 0.0237089 11.0136 0
0.0186459 10.7831 0 0.00853352 10.068 0 0.00114419 8.90094 0 -0.00106957
7.22056 0 0.0177801 11.0065 0 0.0257335 11.0274 0 0.0303551 11.0444
0 0.0324815 11.0595 0 0.0320615 11.0733 0 0.0303407 11.0846 0
0.0281822 11.0923 0 0.0259217 11.0935 0 0.023351 11.0777 0 0.0200434
11.0078 0 0.0145374 10.739 0 0.00523486 10.0022 0 -0.000479537 8.87941
0 -0.00168558 7.2354 0 0.0145775 11.0053 0 0.023024 11.0234 0
0.0278772 11.0401 0 0.0304163 11.0557 0 0.0302984 11.0706 0 0.0287629
11.0836 0 0.026686 11.0947 0 0.0244738 11.1029 0 0.0220705 11.1043
0 0.0193572 11.0863 0 0.015873 11.0045 0 0.0100749 10.7025 0
0.00178176 9.95913 0 -0.00215175 8.87693 0 -0.00234868 7.26383 0 0.0119913
11.0043 0 0.0204519 11.0197 0 0.0251809 11.0353 0 0.0280394 11.0511
0 0.0282276 11.0669 0 0.0268623 11.0813 0 0.0248191 11.0945 0
0.0225535 11.1067 0 0.0201152 11.1163 0 0.0175084 11.1185 0 0.0146407
11.0988 0 0.0109952 11.0055 0 0.00520087 10.6768 0 -0.00179486 9.93779
0 -0.00403286 8.89274 0 -0.00316871 7.306 0 0.00983626 11.0034 0
0.0181613 11.0165 0 0.0225615 11.0308 0 0.0253558 11.046 0 0.0258297
11.0623 0 0.0246225 11.0778 0 0.0225797 11.0925 0 0.0201905 11.1072
0 0.0175936 11.1213 0 0.0148684 11.1331 0 0.012049 11.1371 0
0.00901823 11.1162 0 0.00532039 11.0126 0 -0.000141835 10.6643 0 -0.00564274
9.93717 0 -0.00611038 8.92578 0 -0.00407806 7.36208 0 0.00815135 11.0027
0 0.0161084 11.0137 0 0.0201939 11.0268 0 0.0226759 11.0409 0
0.0230942 11.0569 0 0.0220231 11.0732 0 0.0199527 11.0892 0 0.0173832
11.1056 0 0.0145339 11.1225 0 0.0115441 11.1395 0 0.00852264 11.1543
0 0.0054932 11.1608 0 0.0023795 11.1395 0 -0.00118339 11.0274 0
-0.0059803 10.6665 0 -0.009809 9.95629 0 -0.00839598 8.976 0 -0.00506741
7.43185 0 0.00676556 11.0021 0 0.0141901 11.0113 0 0.0180156 11.0233
0 0.0202008 11.0364 0 0.0203222 11.0514 0 0.0190497 11.0677 0
0.0169192 11.0847 0 0.0141179 11.1024 0 0.0109321 11.1212 0 0.0075601
11.1413 0 0.00416358 11.162 0 0.000851397 11.1808 0 -0.0023131 11.1905
0 -0.00535226 11.1698 0 -0.00853819 11.0515 0 -0.0123547 10.6844 0
-0.0143267 9.99422 0 -0.0108738 9.04259 0 -0.00612482 7.5151 0 0.00562348
11.0017 0 0.0124709 11.0094 0 0.0159852 11.0203 0 0.0178725 11.0323
0 0.0177335 11.0463 0 0.0160247 11.0618 0 0.0134662 11.079 0
0.0103792 11.0978 0 0.00677379 11.1181 0 0.00290769 11.1403 0 -0.00100615
11.1644 0 -0.00480211 11.1897 0 -0.00833181 11.2132 0 -0.0114836 11.2272
0 -0.0142331 11.2082 0 -0.0167694 11.0863 0 -0.0192784 10.7183 0
-0.0191923 10.0503 0 -0.0135373 9.12507 0 -0.00722938 7.61117 0 0.00468553
11.0014 0 0.0109252 11.0079 0 0.0141169 11.0176 0 0.0156925 11.0287
0 0.0152802 11.0416 0 0.0131953 11.0563 0 0.00996693 11.0728 0
0.00616042 11.0918 0 0.00204599 11.1133 0 -0.00243082 11.1371 0 -0.00700305
11.1635 0 -0.0114508 11.1926 0 -0.0155706 11.2233 0 -0.0191677 11.2525
0 -0.0220976 11.2716 0 -0.0243012 11.2555 0 -0.0258763 11.1326 0
-0.026736 10.7686 0 -0.0243869 10.1236 0 -0.0163614 9.22263 0 -0.00838228
7.71935 0 0.00394031 11.0011 0 0.00953286 11.0066 0 0.0124127 11.0154
0 0.0136694 11.0255 0 0.0129804 11.0374 0 0.0105178 11.0511 0
0.00670673 11.0668 0 0.00191882 11.0852 0 -0.0032484 11.1069 0 -0.00846686
11.1319 0 -0.0138512 11.1601 0 -0.0191232 11.1917 0 -0.0240269 11.2267
0 -0.0283142 11.2637 0 -0.0317613 11.2994 0 -0.0342073 11.3245 0
-0.0355576 11.3127 0 -0.0358286 11.1912 0 -0.0347006 10.8349 0 -0.0298877
10.2133 0 -0.0193311 9.33455 0 -0.00956485 7.83892 0 0.00336728 11.001
0 0.0083406 11.0056 0 0.0108605 11.0135 0 0.0118072 11.0226 0
0.0108466 11.0335 0 0.00801884 11.0461 0 0.003638 11.0609 0 -0.00200539
11.0785 0 -0.00853059 11.0995 0 -0.0151876 11.1248 0 -0.0215623 11.1544
0 -0.0278532 11.1879 0 -0.0337463 11.2256 0 -0.0389423 11.2673 0
-0.0431652 11.3116 0 -0.0461825 11.3547 0 -0.0478211 11.3866 0 -0.0479655
11.3801 0 -0.0465646 11.2625 0 -0.0431283 10.9169 0 -0.0356563 10.3184
0 -0.0224051 9.45972 0 -0.0107448 7.96866 0 0.00292166 11.0008 0
0.00736095 11.0049 0 0.009506 11.0119 0 0.0101052 11.0201 0 0.00888709
11.03 0 0.00571727 11.0416 0 0.000795529 11.0552 0 -0.00567104 11.0718
0 -0.0133847 11.0919 0 -0.0218527 11.1165 0 -0.0301126 11.1464 0
-0.037655 11.1814 0 -0.0447767 11.2213 0 -0.0511207 11.2661 0 -0.0563603
11.3154 0 -0.060214 11.3676 0 -0.0624487 11.4187 0 -0.062901 11.4583
0 -0.0614523 11.4582 0 -0.0580025 11.3464 0 -0.0519537 11.0137 0
-0.041621 10.4376 0 -0.0255333 9.59687 0 -0.0119083 8.10731 0 0.00256884
11.0007 0 0.00655768 11.0043 0 0.00838309 11.0106 0 0.0086266 11.018
0 0.00710697 11.0268 0 0.00362661 11.0373 0 -0.00179398 11.0498 0
-0.00903504 11.0652 0 -0.0178857 11.0842 0 -0.0279435 11.1078 0 -0.0385556
11.1368 0 -0.0484941 11.1722 0 -0.0571383 11.2138 0 -0.0649167 11.261
0 -0.0714457 11.3137 0 -0.0763949 11.3714 0 -0.0794909 11.4324 0
-0.0805264 11.4921 0 -0.0793636 11.5399 0 -0.0759027 11.547 0 -0.070022
11.4427 0 -0.0610691 11.1243 0 -0.0477206 10.5696 0 -0.0286774 9.74465
0 -0.0130441 8.25353 0 0.00228509 11.0006 0 0.00589623 11.0039 0
0.00745477 11.0096 0 0.00740837 11.0162 0 0.00557654 11.024 0 0.001756
11.0334 0 -0.00411079 11.0447 0 -0.0120624 11.0587 0 -0.0219805 11.0764
0 -0.0335578 11.0987 0 -0.0462397 11.1266 0 -0.0591673 11.1611 0
-0.0707859 11.2031 0 -0.0803606 11.2523 0 -0.0885147 11.3077 0 -0.0948639
11.3692 0 -0.0990928 11.436 0 -0.100965 11.5062 0 -0.10032 11.5751
0 -0.0970766 11.6315 0 -0.0911849 11.6465 0 -0.0824988 11.5509 0
-0.070365 11.2475 0 -0.053883 10.713 0 -0.0318011 9.90158 0 -0.0141317
8.40593 0 0.00205376 11.0006 0 0.00534706 11.0035 0 0.00668116 11.0088
0 0.00640722 11.0148 0 0.00433208 11.0217 0 0.000180852 11.0299 0
-0.00614111 11.0399 0 -0.0147264 11.0525 0 -0.0256244 11.0687 0 -0.0386298
11.0894 0 -0.0532924 11.1159 0 -0.0688564 11.1491 0 -0.0842045 11.19
0 -0.0973993 11.2398 0 -0.107614 11.2975 0 -0.115748 11.3621 0
-0.121441 11.4331 0 -0.124425 11.5096 0 -0.124532 11.5894 0 -0.121686
11.6677 0 -0.115878 11.7329 0 -0.107117 11.7562 0 -0.0952913 11.6701
0 -0.0797524 11.3819 0 -0.0600282 10.8663 0 -0.0348655 10.0661 0
-0.0151597 8.56304 0 0.00186297 11.0005 0 0.00488825 11.0032 0 0.00603337
11.0081 0 0.00558353 11.0135 0 0.00332872 11.0197 0 -0.00106756 11.0269
0 -0.00780207 11.0355 0 -0.0170072 11.0466 0 -0.0287817 11.0611 0
-0.0431024 11.0801 0 -0.0596319 11.1047 0 -0.0777257 11.1363 0 -0.0963704
11.1759 0 -0.114144 11.2244 0 -0.128684 11.2829 0 -0.139116 11.3502
0 -0.146706 11.4247 0 -0.151159 11.5059 0 -0.152292 11.5925 0
-0.150038 11.6822 0 -0.144426 11.7698 0 -0.135554 11.8439 0 -0.123511
11.8756 0 -0.108235 11.7994 0 -0.0891178 11.5262 0 -0.0660808 11.0278
0 -0.0378374 10.2367 0 -0.0161297 8.72346 0 0.00170402 11.0005 0
0.00450263 11.003 0 0.005488 11.0076 0 0.00490207 11.0125 0 0.00251677
11.0181 0 -0.00204416 11.0243 0 -0.00907009 11.0317 0 -0.018812 11.0411
0 -0.0314255 11.0537 0 -0.046929 11.0707 0 -0.0651856 11.0933 0
-0.0856731 11.1228 0 -0.107493 11.1605 0 -0.129322 11.2075 0 -0.149399
11.2648 0 -0.164913 11.3331 0 -0.174998 11.411 0 -0.181393 11.4961
0 -0.183913 11.5878 0 -0.182504 11.6848 0 -0.177242 11.7843 0
-0.168293 11.8812 0 -0.155867 11.9638 0 -0.140166 12.0038 0 -0.121175
11.9376 0 -0.0983491 11.6789 0 -0.0719779 11.196 0 -0.0406963 10.4117
0 -0.0169588 8.88607 0 0.00157044 11.0004 0 0.00417661 11.0028 0
0.00502649 11.0071 0 0.00433587 11.0117 0 0.00185986 11.0167 0 -0.00280585
11.0222 0 -0.0100167 11.0284 0 -0.0201282 11.0363 0 -0.0334483 11.0468
0 -0.050073 11.0615 0 -0.0698926 11.0818 0 -0.0926063 11.1089 0
-0.117446 11.1442 0 -0.1432 11.1892 0 -0.168191 11.2448 0 -0.190308
11.3119 0 -0.206263 11.3911 0 -0.215271 11.4802 0 -0.219686 11.5765
0 -0.219489 11.6791 0 -0.214799 11.7863 0 -0.205865 11.8955 0
-0.193009 12.0013 0 -0.176575 12.0921 0 -0.156877 12.14 0 -0.133966
12.0833 0 -0.107346 11.8383 0 -0.0776757 11.3693 0 -0.0433736 10.5898
0 -0.01823 9.04811 0 0.00145734 11.0004 0 0.00389949 11.0026 0
0.00463405 11.0067 0 0.00386355 11.0109 0 0.00132692 11.0155 0 -0.00339732
11.0203 0 -0.010712 11.0256 0 -0.0210506 11.0321 0 -0.0348517 11.0407
0 -0.0524067 11.0528 0 -0.0737038 11.0703 0 -0.0984462 11.0947 0
-0.126111 11.1272 0 -0.155617 11.1695 0 -0.185389 11.2229 0 -0.213379
11.2884 0 -0.237088 11.3663 0 -0.252766 11.4573 0 -0.259822 11.5583
0 -0.261368 11.6661 0 -0.257604 11.7796 0 -0.248861 11.8969 0
-0.235588 12.0154 0 -0.21828 12.1295 0 -0.197424 12.2278 0 -0.173447
12.2831 0 -0.146469 12.2354 0 -0.116035 12.003 0 -0.0831029 11.5461
0 -0.0464905 10.769 0 -0.0194097 9.23876 0 0.00136095 11.0004 0
0.00366272 11.0025 0 0.00429877 11.0063 0 0.00346784 11.0103 0 0.000893378
11.0145 0 -0.00385466 11.0187 0 -0.0112122 11.0232 0 -0.0216691 11.0284
0 -0.0357617 11.0353 0 -0.0539481 11.045 0 -0.0764634 11.0593 0
-0.103127 11.0803 0 -0.133387 11.1097 0 -0.166427 11.1489 0 -0.2008
11.1994 0 -0.234534 11.2624 0 -0.265155 11.3388 0 -0.289822 11.4286
0 -0.304337 11.5321 0 -0.308433 11.6455 0 -0.306131 11.765 0
-0.2979 11.8891 0 -0.284319 12.0162 0 -0.266058 12.1433 0 -0.243797
12.265 0 -0.218162 12.37 0 -0.189686 12.4318 0 -0.15857 12.3924
0 -0.124324 12.1715 0 -0.0886359 11.7246 0 -0.0492122 10.969 0
-0.0196927 9.43441 0 0.00127828 11.0004 0 0.00345942 11.0024 0 0.00401094
11.006 0 0.00313492 11.0098 0 0.000539661 11.0136 0 -0.00420656 11.0173
0 -0.0115621 11.0211 0 -0.0220559 11.0253 0 -0.0362952 11.0306 0
-0.0548638 11.0381 0 -0.0782084 11.0494 0 -0.106456 11.0665 0 -0.139186
11.0919 0 -0.175498 11.1275 0 -0.214236 11.1744 0 -0.253535 11.2343
0 -0.290966 11.3082 0 -0.323658 11.3967 0 -0.348456 11.4992 0
-0.360757 11.6159 0 -0.360765 11.7419 0 -0.353562 11.8729 0 -0.33994
12.0074 0 -0.320752 12.1436 0 -0.296903 12.2784 0 -0.269251 12.4068
0 -0.23855 12.5176 0 -0.205438 12.5851 0 -0.170146 12.5531 0
-0.132413 12.3419 0 -0.0938599 11.924 0 -0.0509457 11.1882 0 -0.0200495
9.6254 0 0.0012069 11.0003 0 0.00328405 11.0023 0 0.00376343 11.0058
0 0.00285367 11.0093 0 0.000250153 11.0128 0 -0.00447582 11.0161 0
-0.011797 11.0192 0 -0.0222681 11.0225 0 -0.0365458 11.0265 0 -0.0553059
11.0321 0 -0.0791566 11.0407 0 -0.108491 11.0541 0 -0.143265 11.0747
0 -0.182716 11.1056 0 -0.225531 11.1484 0 -0.27015 11.2044 0
-0.314225 11.275 0 -0.354884 11.3611 0 -0.388878 11.4625 0 -0.412782
11.5786 0 -0.42166 11.7087 0 -0.416355 11.8474 0 -0.403168 11.9896
0 -0.383243 12.1338 0 -0.357726 12.2782 0 -0.327752 12.42 0
-0.294347 12.554 0 -0.258379 12.6695 0 -0.220542 12.7417 0 -0.181265
12.7157 0 -0.140475 12.5328 0 -0.0984577 12.1432 0 -0.052839 11.4032
0 -0.0204299 9.80966 0 0.00114537 11.0003 0 0.00313186 11.0022 0
0.00354996 11.0056 0 0.00261515 11.0089 0 1.24459e-05 11.0121 0 -0.00468047
11.0151 0 -0.0119447 11.0176 0 -0.0223506 11.0201 0 -0.0365873 11.0229
0 -0.0553961 11.0268 0 -0.0795049 11.0329 0 -0.109512 11.0429 0
-0.145703 11.0591 0 -0.187772 11.0842 0 -0.234535 11.1216 0 -0.284169
11.1731 0 -0.33465 11.2395 0 -0.383145 11.3221 0 -0.426334 11.4214
0 -0.460631 11.5368 0 -0.482429 11.6669 0 -0.486549 11.8107 0
-0.474653 11.9618 0 -0.454394 12.1146 0 -0.427298 12.2677 0 -0.394797
12.4194 0 -0.358246 12.567 0 -0.318817 12.7055 0 -0.277445 12.8247
0 -0.234953 12.9001 0 -0.192589 12.898 0 -0.148065 12.7431 0
-0.102824 12.3591 0 -0.0546425 11.6116 0 -0.0207357 9.98588 0 0.00299905
11.0021 0 0.00107143 11.0003 0 0.00336357 11.0054 0 0.00241236 11.0085
0 -0.000183191 11.0116 0 -0.00483474 11.0141 0 -0.012027 11.0162 0
-0.0223384 11.018 0 -0.0364777 11.0197 0 -0.0552305 11.0221 0 -0.0794108
11.0261 0 -0.109771 11.0331 0 -0.146856 11.0451 0 -0.190764 11.0648
0 -0.240853 11.0954 0 -0.295397 11.1406 0 -0.351976 11.2021 0
-0.408093 11.2803 0 -0.460404 11.3762 0 -0.505176 11.4897 0 -0.538559
11.6198 0 -0.556875 11.7643 0 -0.554812 11.9216 0 -0.535027 12.0846
0 -0.506647 12.2472 0 -0.471581 12.4082 0 -0.431533 12.5661 0
-0.388051 12.7183 0 -0.342406 12.8602 0 -0.295616 12.9816 0 -0.249836
13.0777 0 -0.203592 13.0991 0 -0.154925 12.9506 0 -0.10674 12.5692
0 -0.0561585 11.8118 0 -0.0209488 10.1536 0 0.00319779 11.0052 0
0.00284338 11.002 0 0.000982283 11.0003 0 0.00223829 11.0082 0 -0.00034455
11.011 0 -0.00494956 11.0133 0 -0.0120608 11.015 0 -0.0222586 11.0161
0 -0.0362619 11.0169 0 -0.0548841 11.018 0 -0.0789988 11.02 0
-0.109472 11.0243 0 -0.147045 11.0326 0 -0.192137 11.0473 0 -0.244596
11.0715 0 -0.30333 11.1088 0 -0.365953 11.1631 0 -0.4294 11.2361
0 -0.490668 11.3275 0 -0.545924 11.4379 0 -0.591081 11.5666 0
-0.622134 11.7117 0 -0.635464 11.8706 0 -0.625741 12.0412 0 -0.596791
12.2153 0 -0.559312 12.3867 0 -0.515575 12.5545 0 -0.467528 12.7173
0 -0.416855 12.8729 0 -0.364912 13.0168 0 -0.31453 13.1577 0
-0.264573 13.2737 0 -0.213427 13.2976 0 -0.161003 13.1529 0 -0.110048
12.7717 0 -0.0573775 12.0029 0 -0.0210644 10.3123 0 0.00208361 11.008
0 0.00301406 11.005 0 0.00264536 11.0019 0 0.000896613 11.0002 4.26815e-19
-0.000479437 11.0106 0 -0.00503334 11.0126 0 -0.0120589 11.0139 0 -0.0221322
11.0145 0 -0.0359744 11.0145 0 -0.0544147 11.0143 0 -0.078366 11.0147
0 -0.108774 11.0166 0 -0.146528 11.0215 0 -0.192294 11.0317 0
-0.246315 11.0498 0 -0.308082 11.0794 0 -0.375936 11.1247 0 -0.446746
11.1897 0 -0.51672 11.2757 0 -0.582371 11.3817 0 -0.639425 11.5077
0 -0.683538 11.6522 0 -0.710676 11.8128 0 -0.717423 11.9859 0
-0.698558 12.1689 0 -0.659235 12.3532 0 -0.611779 12.5322 0 -0.55879
12.7055 0 -0.5024 12.872 0 -0.444389 13.0295 0 -0.388456 13.1925
0 -0.333507 13.3519 0 -0.277717 13.4673 0 -0.222137 13.4914 0
-0.166194 13.3484 0 -0.112776 12.9658 0 -0.0583196 12.1846 0 -0.0210856
10.4619 0 -0.000601789 11.0102 0 0.00192971 11.0076 0 0.00279553 11.0047
1.86855e-18 0.00245387 11.0018 -1.35137e-18 0.000814122 11.0002 -8.66218e-19 -0.00509444 11.012 0
-0.0120306 11.013 0 -0.0219746 11.0131 0 -0.0356417 11.0123 0 -0.0538669
11.0111 0 -0.077587 11.01 0 -0.107803 11.0097 0 -0.145508 11.0117
0 -0.19156 11.0177 0 -0.246509 11.0304 0 -0.310322 11.0529 0
-0.382028 11.0892 0 -0.459311 11.1438 0 -0.538159 11.2211 0 -0.614027
11.3216 0 -0.682995 11.4434 0 -0.740431 11.5859 0 -0.78186 11.7468
0 -0.803364 11.9228 0 -0.801889 12.1096 0 -0.772444 12.3042 0
-0.721641 12.4974 0 -0.663463 12.6828 0 -0.600766 12.8602 0 -0.535815
13.0289 0 -0.473301 13.2055 0 -0.412292 13.3865 0 -0.350477 13.5438
0 -0.289346 13.6565 0 -0.229637 13.6789 0 -0.170527 13.536 0
-0.11497 13.1508 0 -0.0590119 12.3564 0 -0.0210251 10.6021 0 -0.0051539
11.0115 0 -0.000686499 11.0097 -3.78237e-18 0.00175462 11.0072 -1.96742e-18 0.00258311 11.0045
9.48604e-19 0.00226609 11.0017 -9.1384e-19 0.000734924 11.0002 0 -0.0119847 11.0122 0
-0.0217965 11.0118 0 -0.0352827 11.0104 0 -0.0532742 11.0083 0 -0.0767191
11.0058 0 -0.106653 11.0037 0 -0.144146 11.003 0 -0.190191 11.0053
0 -0.245582 11.013 0 -0.310662 11.029 0 -0.385028 11.0569 0
-0.467162 11.1013 0 -0.553944 11.1669 0 -0.640391 11.258 0 -0.721204
11.3744 0 -0.792125 11.5134 0 -0.848276 11.6731 0 -0.885196 11.8505
0 -0.899262 12.0416 0 -0.887934 12.2413 0 -0.846558 12.4464 0
-0.783312 12.6472 0 -0.713816 12.8375 0 -0.641097 13.0174 0 -0.57102
13.2053 0 -0.502765 13.4 0 -0.433684 13.5783 0 -0.365507 13.7316
0 -0.299407 13.8398 0 -0.235952 13.8592 0 -0.174064 13.7152 0
-0.116677 13.3263 0 -0.0594863 12.5183 0 -0.0208974 10.7332 0 -0.0119528
11.0114 0 -0.00512132 11.0108 7.96071e-18 -0.000745183 11.0091 0 0.00158721 11.0068
1.99602e-18 0.0023772 11.0042 6.104e-22 0.00208227 11.0016 0 0.000659024 11.0002 0
-0.021607 11.0107 0 -0.0349101 11.0088 0 -0.0526609 11.0058 0 -0.0758055
11.0021 0 -0.1054 10.9983 0 -0.142563 10.9952 0 -0.188391 10.9943
0 -0.243854 10.9976 0 -0.309597 11.0076 0 -0.385676 11.0278 0
-0.47124 11.0625 0 -0.564074 11.1163 0 -0.660151 11.1945 0 -0.753438
11.3012 0 -0.837924 11.435 0 -0.909141 11.592 0 -0.962113 11.7694
0 -0.992574 11.9633 0 -0.997359 12.1688 0 -0.974596 12.3805 0
-0.920072 12.5946 0 -0.843589 12.8015 0 -0.76234 12.995 0 -0.683736
13.1946 0 -0.607077 13.4007 0 -0.529316 13.5924 0 -0.452665 13.7661
0 -0.378576 13.9135 0 -0.307935 14.0161 0 -0.241166 14.0315 0
-0.176875 13.8854 0 -0.117952 13.492 0 -0.0597738 12.6701 0 -0.0207155
10.8553 0 -0.0214526 11.0097 0 -0.0117512 11.0106 3.25682e-22 -0.00498027 11.0101
0 -0.00080036 11.0086 -2.10054e-18 0.00142858 11.0064 4.64977e-22 0.0021784 11.004 0
0.00190256 11.0015 0 0.000586378 11.0002 0 -0.0345336 11.0073 0 -0.0520419
11.0036 0 -0.074877 10.9989 0 -0.104097 10.9936 0 -0.140853 10.9884
0 -0.186313 10.9846 0 -0.241579 10.9838 0 -0.307526 10.9884 0
-0.384575 11.0017 0 -0.472427 11.0273 0 -0.56964 11.0701 0 -0.673194
11.1351 0 -0.778052 11.2276 0 -0.877081 11.3514 0 -0.963638 11.5039
0 -1.03322 11.6796 0 -1.08095 11.875 0 -1.10292 12.085 0
-1.0966 12.304 0 -1.06092 12.5262 0 -0.99219 12.7479 0 -0.901861
12.9591 0 -0.813812 13.1728 0 -0.72759 13.391 0 -0.639706 13.5942
0 -0.552936 13.781 0 -0.469228 13.9482 0 -0.389728 14.0888 0
-0.31503 14.1849 0 -0.245375 14.1955 0 -0.179036 14.0464 0 -0.118848
13.648 0 -0.0599022 12.8123 0 -0.0204911 10.9687 0 -0.0342204 11.006
0 -0.021021 11.0086 -4.40244e-18 -0.0113147 11.0095 0 -0.00484212 11.0093 0
-0.000842541 11.008 6.38967e-18 0.00127856 11.006 0 0.00198644 11.0038 0 0.00172721
11.0014 1.90428e-18 0.000517332 11.0001 0 -0.0514274 11.0017 0 -0.0739515 10.996
0 -0.102785 10.9894 0 -0.139088 10.9823 0 -0.184077 10.9759 0
-0.238953 10.9716 0 -0.304761 10.9714 0 -0.382212 10.9782 0 -0.471451
10.9956 0 -0.571683 11.028 0 -0.680767 11.0805 0 -0.79477 11.1584
0 -0.90756 11.2669 0 -1.01088 11.4094 0 -1.09759 11.5817 0
-1.16338 11.7767 0 -1.20365 11.9898 0 -1.21508 12.2151 0 -1.19593
12.4465 0 -1.14601 12.6779 0 -1.06218 12.9052 0 -0.963882 13.1376
0 -0.866941 13.3706 0 -0.767418 13.586 0 -0.668814 13.784 0
-0.573624 13.9641 0 -0.483436 14.1238 0 -0.399082 14.2566 0 -0.320817
14.3456 0 -0.248681 14.3507 0 -0.180623 14.1981 0 -0.119417 13.7944
0 -0.0598974 12.9449 0 -0.0202348 11.074 0 -0.0509135 11 0
-0.0334833 11.0045 0 -0.0201708 11.0073 -4.81107e-18 -0.0108928 11.0085 -4.64316e-18 -0.0046851
11.0085 -8.95659e-18 -0.000871918 11.0075 0 0.0011372 11.0056 -4.15971e-18 0.00180165 11.0035
-4.00662e-18 0.00155583 11.0013 1.92844e-18 0.000451419 11.0001 0 -0.0730402 10.9935 0
-0.101485 10.9857 0 -0.137318 10.977 0 -0.181774 10.9682 0 -0.236125
10.9607 0 -0.301546 10.9562 0 -0.378971 10.9573 0 -0.468897 10.9672
0 -0.571065 10.9901 0 -0.684081 11.0307 0 -0.804992 11.0946 0