# vtk DataFile Version 2.0
sampleSurface
ASCII
DATASET POLYDATA
POINTS 15978 float
-4.26165e-19 0.000133477 0 -4.18079e-19 -0.000798814 0 -4.33681e-19 0.001 0 -4.09379e-19 -0.00180187
0 -0.00181681 0.000361473 0 0.00181681 0.000361473 0 -0.00181396 -0.000575145 0
0.00181396 -0.000575145 0 -0.00181945 0.00123202 0 0.00181945 0.00123202 0 -0.00181089
-0.00158285 0 0.00181089 -0.00158285 0 -4.00018e-19 -0.00288105 0 -0.00180759 -0.00266704
0 0.00180759 -0.00266704 0 -0.00351565 8.15481e-05 0 0.00351565 8.15481e-05 0
-0.00351186 -0.000939823 0 0.00351186 -0.000939823 0 -0.00351918 0.00103087 0 0.00351918
0.00103087 0 -0.00352245 0.00191322 0 0.00352245 0.00191322 0 -3.89947e-19 -0.00404214
0 -0.00350777 -0.00203871 0 0.00350777 -0.00203871 0 -0.00180405 -0.00383352 0
0.00180405 -0.00383352 0 -0.00350338 -0.00322101 0 0.00350338 -0.00322101 0 -0.005
8.60602e-05 0 0.005 8.60602e-05 0 -0.005 -0.00103629 0 0.005 -0.00103629
0 -0.005 0.00112923 0 0.005 0.00112923 0 -3.79112e-19 -0.00529135 0
-0.00180023 -0.00508853 0 0.00180023 -0.00508853 0 -0.005 0.00209882 0 0.005
0.00209882 0 -0.005 -0.00224382 0 0.005 -0.00224382 0 -0.00349866 -0.00449304
0 0.00349866 -0.00449304 0 -0.005 0.003 0 0.005 0.003 0
-0.005 -0.003543 0 0.005 -0.003543 0 -0.00637208 2.82617e-05 0 0.00639053
4.25732e-05 0 -0.00637208 0.00114892 0 -0.00637208 -0.00117745 0 0.00639053 -0.00116311
0 0.00639053 0.00116321 0 -3.67455e-19 -0.00663538 0 -0.00179612 -0.00643879 0
0.00179612 -0.00643879 0 -0.00637208 0.00219052 0 0.00639053 0.00220479 0 -0.00349357
-0.00586162 0 0.00349357 -0.00586162 0 -0.00637208 -0.00247467 0 0.00639053 -0.00246031
0 -0.005 -0.00494079 0 0.005 -0.00494079 0 -0.00637208 0.00315864 0
0.00639053 0.00317289 0 -0.00637208 -0.00387036 0 0.00639053 -0.00385597 0 -0.00637208
0.00405846 0 0.00639053 0.00407269 0 -0.00778421 -7.99569e-05 0 0.00781802 -5.3679e-05
0 -0.00778421 0.00112388 0 0.00781802 0.00115011 0 -0.00778421 -0.00137517 0
0.00781802 -0.00134884 0 -3.54912e-19 -0.00808142 0 -0.0017917 -0.00789154 0 0.0017917
-0.00789154 0 -0.00778421 0.0022428 0 -0.0034881 -0.00733407 0 0.0034881 -0.00733407
0 0.00781802 0.00226899 0 -0.005 -0.00644467 0 0.005 -0.00644467 0
-0.00778421 -0.00276868 0 0.00781802 -0.0027423 0 -0.00637208 -0.00537197 0 0.00639053
-0.00535755 0 -0.00778421 0.00328278 0 0.00781802 0.00330893 0 -0.00778421 0.00424939
0 -0.00778421 -0.00426796 0 0.00781802 -0.00424152 0 0.00781802 0.00427551 0
-0.00923755 -0.000243565 0 0.00928347 -0.000207818 0 -0.00923755 0.00104957 0 -0.00778421
0.00514782 0 0.00928347 0.00108525 0 0.00781802 0.0051739 0 -0.00923755 -0.00163485
0 0.00928347 -0.00159903 0 -0.00637208 -0.00698755 0 0.00639053 -0.0069731 0
-0.005 -0.0080627 0 0.005 -0.0080627 0 -0.00923755 0.00225148 0 0.00928347
0.0022871 0 -0.00348222 -0.00891827 0 0.00348222 -0.00891827 0 -0.00178695 -0.00945455
0 0.00178695 -0.00945455 0 -3.41418e-19 -0.00963721 0 -0.00923755 -0.00313172 0
-0.00778421 -0.00588103 0 0.00781802 -0.00585453 0 0.00928347 -0.00309583 0 -0.00923755
0.0033686 0 0.00928347 0.00340416 0 -0.00923755 0.00440692 0 0.00928347 0.00444243
0 -0.00923755 -0.00474221 0 0.00928347 -0.00470623 0 -0.00923755 0.00537198 0
-0.0107333 -0.000467921 0 0.00928347 0.00540745 0 -0.0107333 0.000921062 0 0.0107879
-0.000425364 0 0.00639053 -0.00871127 0 -0.00637208 -0.00872575 0 0.0107879 0.000963535
0 -0.00778421 -0.00761653 0 0.00781802 -0.00758997 0 -0.0107333 -0.00196233 0
0.0107879 -0.00191968 0 -0.0107333 0.00221206 0 -0.005 -0.00980352 0 0.005
-0.00980352 0 0.0107879 0.00225445 0 -0.00923755 0.00626897 0 -0.00347589 -0.0106227
0 0.00347589 -0.0106227 0 0.00928347 0.00630439 0 -0.0107333 0.00341198 0
-0.00178183 -0.0111362 0 0.00178183 -0.0111362 0 -0.00923755 -0.00647493 0 0.00928347
-0.00643887 0 -3.26899e-19 -0.0113111 0 -0.0107333 -0.00357015 0 0.0107879 0.00345431
0 0.0107879 -0.00352741 0 -0.0107333 0.00452726 0 0.0107879 0.00456952 0
-0.0107333 -0.00530001 0 0.0107879 -0.00525717 0 -0.0107333 0.00556386 0 0.0107879
0.00560606 0 -0.000743369 0.0122055 0 0.000743369 0.0122055 0 -0.00778421 -0.00948375
0 0.00781802 -0.00945713 0 -0.0122727 0.000733061 0 -0.0122727 -0.000758799 0
0.0123323 -0.000712262 0 0.0123323 0.0007795 0 0.00639053 -0.0105814 0 -0.00637208
-0.0105959 0 -0.00923755 -0.00833916 0 -0.0122727 0.00211968 0 0.00928347 -0.00830301
0 -0.0122727 -0.00236389 0 0.0123323 0.00216603 0 0.0123323 -0.00231725 0
-0.0107333 0.00652734 0 0.0107879 0.00656947 0 -0.005 -0.0116765 0 0.005
-0.0116765 0 -0.0122727 0.00340848 0 0.0123323 0.00345474 0 -0.000741126 0.0128136
0 0.000741126 0.0128136 0 -0.0107333 -0.00716117 0 0.0107879 -0.00711821 0
-0.00346908 -0.0124565 0 0.00346908 -0.0124565 0 -0.0122727 -0.00409081 0 0.0123323
-0.00404405 0 -0.0107333 0.00742284 0 -0.00177633 -0.0129455 0 0.00177633 -0.0129455
0 -0.0122727 0.00460636 0 -3.11279e-19 -0.013112 0 0.0107879 0.00746492 0
-0.002 0.013 0 0.002 0.013 0 0.0123323 0.00465255 0 -0.0007387
0.0134712 0 0.0007387 0.0134712 0 -0.0122727 0.00571974 0 0.0123323 0.00576585
0 -0.0122727 -0.00594879 0 0.0123323 -0.00590191 0 -0.002 0.0135849 0
0.002 0.0135849 0 -0.0138571 0.000479853 0 -0.00923755 -0.0103449 0 0.00928347
-0.0103086 0 0.00781802 -0.011466 0 -0.00778421 -0.0114927 0 -0.0138571 -0.00112242
0 0.0139177 0.000527252 0 0.0139177 -0.00107491 0 -0.0138571 0.0019691 0
-0.0122727 0.00675458 0 0.0139177 0.00201639 0 0.0123323 0.00680062 0 -0.0107333
-0.00916358 0 0.00639053 -0.0125934 0 0.0107879 -0.0091205 0 -0.00637208 -0.012608
0 -0.0138571 -0.0028463 0 0.0139177 -0.00279868 0 -0.000736077 0.0141824 0
0.000736077 0.0141824 0 -0.00319452 0.0138829 0 0.00320133 0.0138879 0 -0.0138571
0.00335328 0 0.0139177 0.00340049 0 -0.002 0.0142174 0 0.002 0.0142174
0 -0.0122727 0.00771641 0 0.0123323 0.00776239 0 -0.005 -0.0136916 0
0.005 -0.0136916 0 -0.0138571 0.00463982 0 -0.0122727 -0.0079478 0 -0.0138571
-0.00470103 0 0.0123323 -0.00790078 0 0.0139177 -0.00465328 0 0.0139177 0.00468694
0 -0.00319452 0.0144678 0 0.00320133 0.0144728 0 -0.00346175 -0.0144295 0
0.00346175 -0.0144295 0 -0.00073324 0.0149515 0 0.00073324 0.0149515 0 -0.0122727
0.00861039 0 -0.00177041 -0.0148921 0 0.00177041 -0.0148921 0 -0.002 0.0149014
0 0.002 0.0149014 0 -0.0138571 0.0058356 0 -2.94473e-19 -0.0150496 0
0.0123323 0.00865631 0 0.0139177 0.00588264 0 -0.0138571 -0.00669653 0 0.0139177
-0.00664864 0 -0.00319452 0.0151003 0 0.00320133 0.0151053 0 -0.0154877 0.000155282
0 -0.0138571 0.00694702 0 -0.00451419 0.0148583 0 0.0045263 0.0148673 0
0.00928347 -0.0124665 0 -0.00923755 -0.0125028 0 0.0155453 0.000200444 0 -0.0154877
-0.00156548 0 0.0139177 0.00699399 0 -0.0154877 0.00175466 0 -0.0107333 -0.011318
0 0.0107879 -0.0112748 0 0.0155453 -0.00152021 0 0.0155453 0.00179972 0
0.00781802 -0.0136273 0 -0.00778421 -0.0136541 0 -0.002 0.0156411 0 0.002
0.0156411 0 -0.000730172 0.0157833 0 0.000730172 0.0157833 0 -0.0154877 0.0032412
0 -0.0154877 -0.00341685 0 0.0155453 0.00328617 0 -0.0122727 -0.0100985 0
0.0155453 -0.00337146 0 0.0123323 -0.0100514 0 -0.0138571 0.00798004 0 0.0139177
0.00802694 0 0.00639053 -0.0147581 0 -0.00637208 -0.0147727 0 -0.00451419 0.0154432
0 0.0045263 0.0154521 0 -0.00319452 0.0157843 0 0.00320133 0.0157893 0
-0.0154877 0.00462288 0 0.0155453 0.00466776 0 -0.0154877 -0.00540874 0 -0.0138571
-0.00884348 0 0.0155453 -0.00536322 0 0.0139177 -0.00879545 0 -0.0138571 0.00894019
0 -0.002 0.0164411 0 0.002 0.0164411 0 0.0139177 0.00898702 0
-0.0154877 0.00590709 0 -0.005 -0.0158596 0 0.005 -0.0158596 0 0.0155453
0.00595189 0 -0.00451419 0.0160757 0 -0.000726854 0.0166828 0 0.000726854 0.0166828
0 0.0045263 0.0160846 0 -0.00319452 0.016524 0 0.00320133 0.016529 0
-0.00345386 -0.0165523 0 0.00345386 -0.0165523 0 -0.0138571 0.0098326 0 -0.00597213
0.0159359 0 0.00598764 0.0159474 0 -0.0154877 0.00710071 0 0.0139177 0.00987937
0 -0.00176404 -0.0169864 0 0.00176404 -0.0169864 0 0.0155453 0.00714543 0
-2.76391e-19 -0.0171343 0 -0.0171658 -0.000247278 0 0.0172162 -0.000207752 0 -0.0171658
0.00147028 0 -0.0154877 -0.0075518 0 0.0155453 -0.00750615 0 0.0172162 0.00150971
0 -0.0171658 -0.00209519 0 0.0172162 -0.00205556 0 0.0107879 -0.0135925 0
-0.0107333 -0.0136359 0 -0.00451419 0.0167597 0 0.0045263 0.0167686 0 -0.002
0.0173062 0 0.002 0.0173062 0 -0.0171658 0.00306667 0 -0.0122727 -0.0124125
0 0.00928347 -0.0147881 0 0.0123323 -0.0123652 0 -0.00923755 -0.0148246 0
0.0172162 0.00310601 0 -0.0154877 0.00821012 0 -0.00597213 0.0165208 0 0.00598764
0.0165323 0 0.0155453 0.00825477 0 -0.00319452 0.017324 0 0.00320133 0.017329
0 -0.0171658 -0.00408336 0 -0.000723266 0.0176555 0 0.000723266 0.0176555 0
0.0172162 -0.00404362 0 -0.0171658 0.00455044 0 0.00781802 -0.0159527 0 -0.00778421
-0.0159796 0 -0.0138571 -0.0111534 0 0.0139177 -0.0111052 0 0.0172162 0.0045897
0 -0.0154877 0.00924127 0 -0.00451419 0.0174994 0 0.0045263 0.0175084 0
0.0155453 0.00928585 0 -0.0171658 0.00592954 0 -0.00597213 0.0171533 0 0.00598764
0.0171648 0 0.0172162 0.00596872 0 0.00639053 -0.0170872 0 -0.00637208 -0.0171018
0 -0.0171658 -0.00622243 0 0.0172162 -0.00618257 0 -0.002 0.0182418 0
0.002 0.0182418 0 -0.0154877 -0.00985753 0 0.0155453 -0.00981172 0 -0.00319452
0.0181891 0 0.00320133 0.0181941 0 -0.0154877 0.0101997 0 0.0155453 0.0102442
0 -0.0171658 0.00721136 0 0.0172162 0.00725047 0 -0.000719385 0.0187075 0
0.000719385 0.0187075 0 -0.00758282 0.0171264 0 0.00759938 0.0171387 0 -0.00597213
0.0178373 0 0.00598764 0.0178488 0 -0.00451419 0.0182994 0 0.0045263 0.0183083
0 -0.005 -0.0181922 0 0.005 -0.0181922 0 -0.018893 -0.00073496 0
-0.018893 0.0011094 0 0.0189314 -0.000704684 0 0.0189314 0.0011396 0 -0.0154877
0.0110905 0 -0.018893 -0.0027193 0 -0.018893 0.00282365 0 -0.0171658 0.00840275
0 0.0189314 -0.00268894 0 0.0155453 0.0111349 0 0.0189314 0.00285377 0
-0.00344538 -0.0188361 0 0.00344538 -0.0188361 0 -0.0171658 -0.00852385 0 0.0172162
0.00844179 0 0.0172162 -0.00848386 0 -0.00758282 0.0177113 0 0.00759938 0.0177235
0 -0.0122727 -0.0149021 0 0.0123323 -0.0148546 0 -0.00175719 -0.0192397 0
[...]
CELL_DATA 15677
FIELD attributes 1
U 3 15677 float
-0.304871 10.2652 0 0.190476 10.9192 0 -0.101144 9.44665 0 0.0315577 10.9901
0 0.118847 10.7323 0 -0.0119266 8.75831 0 0.0455292 11.0075 0
0.0144872 10.9815 0 0.0577149 10.4719 0 0.0115312 8.22926 0 0.0466969
11.0122 0 0.0433944 11.0311 0 0.0260962 10.9286 0 0.0319096 10.1907
0 0.0113241 7.85602 0 0.0440145 11.0135 0 0.0424118 11.0439 0
0.0428129 11.0208 0 0.0332416 10.8603 0 0.0213732 9.90283 0 0.00644239
7.61182 0 0.04138 11.0136 0 0.0404545 11.0461 0 0.0402165 11.0448
0 0.0399006 11.0048 0 0.0328282 10.7691 0 0.0159547 9.63747 0
0.00250622 7.45861 0 0.03864 11.0131 0 0.0389992 11.0453 0 0.0393944
11.0533 0 0.0385128 11.0445 0 0.0358584 10.9825 0 0.0288636 10.657
0 0.0121652 9.41231 0 0.000564099 7.36209 0 0.0356154 11.0123 0
0.037386 11.0435 0 0.0387288 11.0559 0 0.0384636 11.0587 0 0.036064
11.042 0 0.0318509 10.9527 0 0.0240852 10.5325 0 0.00902463 9.2373
0 1.75174e-05 7.29993 0 0.0323346 11.0113 0 0.0354786 11.0411 0
0.037643 11.0557 0 0.0379065 11.0639 0 0.0361361 11.0633 0 0.0329305
11.0363 0 0.0284304 10.9173 0 0.019495 10.3979 0 0.00646333 9.10653
0 -0.000236201 7.25733 0 0.0288597 11.0101 0 0.0333505 11.0382 0
0.0362492 11.0539 0 0.036965 11.0652 0 0.0355812 11.0716 0 0.0329818
11.0661 0 0.0298352 11.0288 0 0.0254252 10.8757 0 0.0154694 10.2692
0 0.00440942 9.01165 0 -0.000466705 7.23283 0 0.0252689 11.0089 0
0.0310248 11.0348 0 0.0345966 11.0513 0 0.0357514 11.0643 0 0.0346765
11.0745 0 0.0324333 11.0783 0 0.0297955 11.0686 0 0.0268478 11.0211
0 0.0222195 10.8304 0 0.0118486 10.1591 0 0.00266915 8.94571 0
-0.000670618 7.22126 0 0.0215538 11.0077 0 0.0285064 11.0312 0 0.0326775
11.048 0 0.0342734 11.0622 0 0.0334835 11.0746 0 0.0314931 11.0831
0 0.0291398 11.0852 0 0.0266496 11.0723 0 0.023561 11.0142 0
0.0185248 10.7844 0 0.00845448 10.0703 0 0.00110356 8.90364 0 -0.00108616
7.22324 0 0.0178496 11.0065 0 0.0259045 11.0273 0 0.0304776 11.0442
0 0.032515 11.0591 0 0.0320063 11.073 0 0.0302154 11.0843 0
0.0280125 11.0922 0 0.0257331 11.0936 0 0.0231649 11.0782 0 0.0198752
11.0088 0 0.014405 10.7408 0 0.0051465 10.0051 0 -0.000538534 8.88264
0 -0.00170654 7.23851 0 0.0146536 11.0053 0 0.0232242 11.0233 0
0.0280251 11.0398 0 0.0304586 11.0553 0 0.0302361 11.0702 0 0.0286165
11.0834 0 0.0264846 11.0946 0 0.0242467 11.1031 0 0.0218418 11.1048
0 0.0191434 11.0872 0 0.0156857 11.006 0 0.00993012 10.7049 0
0.00167376 9.96254 0 -0.00220939 8.88072 0 -0.00237349 7.26743 0 0.0120749
11.0043 0 0.0206852 11.0196 0 0.0253538 11.0351 0 0.0280909 11.0507
0 0.0281566 11.0665 0 0.0266915 11.081 0 0.0245815 11.0944 0
0.0222826 11.1068 0 0.0198384 11.1168 0 0.0172442 11.1194 0 0.0144004
11.1002 0 0.0107886 11.0075 0 0.00504335 10.6798 0 -0.00190718 9.94181
0 -0.00409884 8.89712 0 -0.00319975 7.31014 0 0.0099204 11.0034 0
0.0184245 11.0164 0 0.0227601 11.0305 0 0.0254171 11.0456 0 0.0257482
11.0619 0 0.0244236 11.0775 0 0.0223008 11.0924 0 0.0198697 11.1073
0 0.0172622 11.1218 0 0.0145476 11.134 0 0.0117511 11.1383 0
0.00875088 11.118 0 0.00509144 11.0151 0 -0.00031849 10.668 0 -0.00577149
9.94182 0 -0.00618756 8.93082 0 -0.00411659 7.36684 0 0.00825649 11.0027
0 0.0164116 11.0136 0 0.0204166 11.0266 0 0.0227466 11.0406 0
0.0230002 11.0565 0 0.0217919 11.0729 0 0.0196268 11.0891 0 0.0170059
11.1057 0 0.0141406 11.123 0 0.011159 11.1403 0 0.00815996 11.1556
0 0.00516068 11.1625 0 0.00208253 11.1418 0 -0.00144115 11.0305 0
-0.00618435 10.6708 0 -0.00995994 9.96164 0 -0.00848741 8.98176 0 -0.00511432
7.43731 0 0.00687276 11.0021 0 0.0145073 11.0112 0 0.0182579 11.0231
0 0.0202803 11.0361 0 0.0202153 11.051 0 0.0187815 11.0674 0
0.0165399 11.0846 0 0.0136765 11.1026 0 0.0104686 11.1217 0 0.0071024
11.1422 0 0.00372779 11.1632 0 0.000446013 11.1824 0 -0.00268362 11.1927
0 -0.005687 11.1726 0 -0.00883054 11.0552 0 -0.0125921 10.6894 0
-0.0145056 10.0003 0 -0.0109831 9.04916 0 -0.00618005 7.52136 0 0.00573783
11.0017 0 0.012827 11.0093 0 0.0162468 11.02 0 0.0179586 11.032
0 0.0176143 11.046 0 0.015719 11.0616 0 0.0130267 11.0789 0
0.00986547 11.098 0 0.00623114 11.1186 0 0.00236785 11.1411 0 -0.00152462
11.1657 0 -0.00528973 11.1913 0 -0.00878513 11.2154 0 -0.0119015 11.2299
0 -0.0146135 11.2116 0 -0.0171054 11.0907 0 -0.0195568 10.7241 0
-0.0194054 10.0572 0 -0.0136674 9.13255 0 -0.00729537 7.61831 0 0.00480618
11.0014 0 0.0113084 11.0078 0 0.0143951 11.0174 0 0.0157866 11.0284
0 0.0151488 11.0414 0 0.0128546 11.0561 0 0.00946658 11.0728 0
0.00556549 11.092 0 0.00141465 11.1138 0 -0.00306324 11.1379 0 -0.00761485
11.1647 0 -0.0120313 11.1943 0 -0.016116 11.2254 0 -0.0196781 11.2552
0 -0.0225726 11.2748 0 -0.0247385 11.2595 0 -0.0262669 11.1377 0
-0.027064 10.7752 0 -0.0246399 10.1315 0 -0.016517 9.23112 0 -0.00846123
7.72752 0 0.00406703 11.0011 0 0.00994511 11.0065 0 0.0127101 11.0152
0 0.0137681 11.0252 0 0.0128376 11.0371 0 0.0101434 11.0509 0
0.00614961 11.0667 0 0.00124241 11.0853 0 -0.00397914 11.1073 0 -0.00920289
11.1327 0 -0.014568 11.1613 0 -0.0198083 11.1933 0 -0.0246761 11.2287
0 -0.0289279 11.2663 0 -0.0323408 11.3026 0 -0.0347527 11.3283 0
-0.036065 11.3173 0 -0.0362857 11.1971 0 -0.0350877 10.8425 0 -0.0301891
10.2222 0 -0.0195166 9.34418 0 -0.00965691 7.84824 0 0.00350021 11.001
0 0.00878185 11.0056 0 0.0111757 11.0133 0 0.0119125 11.0224 0
0.0106919 11.0332 0 0.00761232 11.0459 0 0.00302663 11.0609 0 -0.0027579
11.0786 0 -0.00936128 11.1 0 -0.0160392 11.1256 0 -0.0223965 11.1555
0 -0.0286559 11.1895 0 -0.0345125 11.2277 0 -0.0396725 11.2699 0
-0.0438618 11.3147 0 -0.0468471 11.3584 0 -0.048453 11.3911 0 -0.048558
11.3855 0 -0.0471015 11.2693 0 -0.0435858 10.9255 0 -0.0360138 10.3285
0 -0.0226246 9.47062 0 -0.010852 7.97927 0 0.00306087 11.0008 0
0.00783002 11.0048 0 0.00983646 11.0117 0 0.0102169 11.0198 0 0.00872153
11.0297 0 0.00527997 11.0414 0 0.000132491 11.0552 0 -0.0064963 11.0719
0 -0.0143082 11.0924 0 -0.0228201 11.1173 0 -0.0310775 11.1475 0
-0.038589 11.183 0 -0.0456741 11.2233 0 -0.0519821 11.2686 0 -0.0571888
11.3184 0 -0.0610124 11.3713 0 -0.0632182 11.4231 0 -0.0636378 11.4634
0 -0.0621464 11.4643 0 -0.0586341 11.3541 0 -0.0524937 11.0233 0
-0.042042 10.4489 0 -0.0257919 9.60918 0 -0.012033 8.11935 0 0.00271417
11.0007 0 0.00704743 11.0042 0 0.00872324 11.0104 0 0.00874363 11.0177
0 0.00693101 11.0265 0 0.00316004 11.0371 0 -0.00250626 11.0498 0
-0.00992954 11.0653 0 -0.0188979 11.0846 0 -0.0290185 11.1085 0 -0.0396509
11.1379 0 -0.0495739 11.1737 0 -0.058182 11.2158 0 -0.0659251 11.2634
0 -0.0724222 11.3167 0 -0.0773437 11.375 0 -0.0804144 11.4366 0
-0.0814227 11.4971 0 -0.080226 11.5458 0 -0.0767178 11.5541 0 -0.0707642
11.4515 0 -0.0617032 11.1351 0 -0.048216 10.5823 0 -0.028981 9.75852
0 -0.0131887 8.26717 0 0.00243625 11.0006 0 0.00640143 11.0038 0
0.00780392 11.0094 0 0.00752916 11.016 0 0.00539136 11.0237 0 0.00126163
11.0332 0 -0.00487004 11.0447 0 -0.0130228 11.0589 0 -0.0230771 11.0768
0 -0.0347353 11.0994 0 -0.0474562 11.1277 0 -0.0603923 11.1625 0
-0.0719918 11.205 0 -0.0815326 11.2547 0 -0.089657 11.3106 0 -0.0959815
11.3727 0 -0.100189 11.4402 0 -0.10204 11.5111 0 -0.101369 11.5808
0 -0.0980886 11.6382 0 -0.0921414 11.6545 0 -0.0833696 11.5608 0
-0.0711081 11.2597 0 -0.0544633 10.7273 0 -0.0321559 9.91717 0 -0.0142986
8.42132 0 0.00221043 11.0006 0 0.00586398 11.0034 0 0.00703877 11.0086
0 0.00653339 11.0145 0 0.00413944 11.0214 0 -0.000338369 11.0297 0
-0.00694488 11.0398 0 -0.0157494 11.0527 0 -0.026801 11.0691 0 -0.0399046
11.0901 0 -0.054624 11.1169 0 -0.0702158 11.1505 0 -0.0855713 11.1919
0 -0.0987521 11.2421 0 -0.10894 11.3004 0 -0.117054 11.3655 0
-0.122731 11.4372 0 -0.125701 11.5144 0 -0.12579 11.595 0 -0.122917
11.6742 0 -0.117066 11.7406 0 -0.108237 11.7653 0 -0.0963098 11.6813
0 -0.0806206 11.3956 0 -0.0607044 10.8823 0 -0.035278 10.0836 0
-0.0153513 8.58036 0 0.00202477 11.0005 0 0.00541394 11.0032 0 0.00639817
11.008 0 0.00571313 11.0133 0 0.00312936 11.0195 0 -0.00160748 11.0267
0 -0.00864596 11.0354 0 -0.0180897 11.0467 0 -0.0300342 11.0615 0
-0.0444692 11.0807 0 -0.0610723 11.1057 0 -0.0792123 11.1376 0 -0.0978857
11.1776 0 -0.115675 11.2266 0 -0.130213 11.2857 0 -0.140631 11.3536
0 -0.148213 11.4287 0 -0.15266 11.5106 0 -0.153784 11.598 0
-0.151514 11.6886 0 -0.14587 11.7773 0 -0.136946 11.8525 0 -0.124821
11.8858 0 -0.109422 11.8119 0 -0.0901275 11.5416 0 -0.0668651 11.0457
0 -0.0383146 10.2562 0 -0.0163489 8.74289 0 0.00187057 11.0004 0
0.00503474 11.0029 0 0.00585872 11.0074 0 0.00503479 11.0123 0 0.00231329
11.0179 0 -0.00260166 11.0242 0 -0.00994806 11.0316 0 -0.019948 11.0412
0 -0.0327496 11.054 0 -0.0483825 11.0713 0 -0.0667284 11.0942 0
-0.0872794 11.1241 0 -0.109148 11.1622 0 -0.131017 11.2097 0 -0.151127
11.2674 0 -0.166658 11.3364 0 -0.176744 11.4148 0 -0.183145 11.5007
0 -0.185667 11.5932 0 -0.184254 11.691 0 -0.178974 11.7916 0
-0.169987 11.8896 0 -0.157495 11.9736 0 -0.141693 12.0154 0 -0.122553
11.9516 0 -0.0995176 11.696 0 -0.0728831 11.216 0 -0.0412453 10.4335
0 -0.0172069 8.90779 0 0.00174135 11.0004 0 0.00471337 11.0027 0
0.00540184 11.0069 0 0.00447152 11.0115 0 0.00165282 11.0165 0 -0.00337749
11.022 0 -0.0109234 11.0284 0 -0.0213098 11.0363 0 -0.0348368 11.0471
0 -0.0516079 11.062 0 -0.0715311 11.0826 0 -0.0943243 11.1101 0
-0.119231 11.1458 0 -0.145048 11.1912 0 -0.170101 11.2473 0 -0.192276
11.3149 0 -0.20827 11.3948 0 -0.217297 11.4847 0 -0.221731 11.5817
0 -0.221545 11.6852 0 -0.216853 11.7934 0 -0.207896 11.9037 0
-0.194991 12.0108 0 -0.178474 12.1031 0 -0.15865 12.153 0 -0.135561
12.0991 0 -0.108692 11.8574 0 -0.0787153 11.3914 0 -0.0440016 10.6141
0 -0.0185198 9.07228 0 0.00163223 11.0004 0 0.00443948 11.0026 0
0.00501258 11.0066 0 0.00400188 11.0108 0 0.00111712 11.0153 0 -0.00398058
11.0202 0 -0.0116426 11.0256 0 -0.0222706 11.0322 0 -0.0362948 11.0409
0 -0.0540142 11.0533 0 -0.0754313 11.071 0 -0.100268 11.0958 0
-0.128017 11.1287 0 -0.157607 11.1714 0 -0.187467 11.2253 0 -0.215549
11.2913 0 -0.239347 11.3698 0 -0.255092 11.4615 0 -0.262187 11.5634
0 -0.263765 11.6721 0 -0.260018 11.7865 0 -0.251272 11.905 0
-0.237967 12.0247 0 -0.220593 12.1403 0 -0.19963 12.2403 0 -0.175497
12.2977 0 -0.148304 12.253 0 -0.117577 12.0241 0 -0.0842906 11.5707
0 -0.0472154 10.7959 0 -0.0197484 9.26609 0 0.00153943 11.0003 0
0.00420486 11.0024 0 0.00468055 11.0062 0 0.00360863 11.0102 0 0.000681571
11.0143 0 -0.00444742 11.0186 0 -0.0121628 11.0231 0 -0.0229214 11.0285
0 -0.0372507 11.0355 0 -0.0556167 11.0455 0 -0.0782695 11.06 0
-0.105044 11.0813 0 -0.135403 11.1111 0 -0.168546 11.1507 0 -0.203032
11.2016 0 -0.23689 11.2651 0 -0.267641 11.3421 0 -0.292435 11.4326
0 -0.307046 11.5369 0 -0.311203 11.6513 0 -0.308944 11.7717 0
-0.300734 11.897 0 -0.287143 12.0253 0 -0.268836 12.1538 0 -0.246487
12.2771 0 -0.220715 12.384 0 -0.192045 12.4482 0 -0.160672 12.412
0 -0.126083 12.1949 0 -0.0899931 11.7517 0 -0.0500449 10.999 0
-0.0200721 9.46526 0 0.00145994 11.0003 0 0.00400302 11.0023 0 0.00439521
11.006 0 0.00327781 11.0096 0 0.000326519 11.0134 0 -0.00480709 11.0172
0 -0.0125292 11.021 0 -0.0233351 11.0253 0 -0.0378226 11.0308 0
-0.0565835 11.0386 0 -0.0800802 11.0501 0 -0.108456 11.0674 0 -0.141303
11.0932 0 -0.177735 11.1291 0 -0.216607 11.1765 0 -0.256058 11.2369
0 -0.293657 11.3114 0 -0.326527 11.4004 0 -0.351495 11.5038 0
-0.363926 11.6213 0 -0.364013 11.7484 0 -0.356863 11.8805 0 -0.343261
12.0163 0 -0.324052 12.1539 0 -0.300136 12.2903 0 -0.272367 12.4205
0 -0.24149 12.5333 0 -0.208141 12.6033 0 -0.172543 12.5748 0
-0.134412 12.3678 0 -0.095414 11.9541 0 -0.0518903 11.2219 0 -0.0204752
9.66003 0 0.00139133 11.0003 0 0.00382879 11.0022 0 0.00414839 11.0057
0 0.00299931 11.0092 0 3.62304e-05 11.0127 0 -0.00508267 11.016 0
-0.0127779 11.0192 0 -0.0235699 11.0226 0 -0.0381054 11.0267 0 -0.0570683
11.0325 0 -0.0810828 11.0413 0 -0.110559 11.0549 0 -0.145468 11.0759
0 -0.185057 11.1071 0 -0.228026 11.1503 0 -0.272821 11.2068 0
-0.317099 11.2779 0 -0.357981 11.3646 0 -0.392207 11.4668 0 -0.41633
11.5837 0 -0.425372 11.7149 0 -0.420165 11.8548 0 -0.407036 11.9982
0 -0.387124 12.1438 0 -0.361567 12.2898 0 -0.331499 12.4333 0
-0.297938 12.5693 0 -0.261749 12.6871 0 -0.223623 12.762 0 -0.183983
12.7397 0 -0.142763 12.5615 0 -0.100235 12.177 0 -0.0539111 11.4409
0 -0.020907 9.84829 0 0.00133225 11.0003 0 0.00367765 11.0021 0
0.00393516 11.0055 0 0.00276369 11.0088 0 -0.000201748 11.012 0 -0.00529247
11.0149 0 -0.012937 11.0176 0 -0.0236712 11.0201 0 -0.038174 11.0231
0 -0.0571942 11.0271 0 -0.0814761 11.0335 0 -0.111636 11.0438 0
-0.147976 11.0602 0 -0.190201 11.0856 0 -0.237136 11.1234 0 -0.286969
11.1753 0 -0.337683 11.2422 0 -0.386441 11.3254 0 -0.429918 11.4253
0 -0.464508 11.5415 0 -0.486578 11.6726 0 -0.490898 11.8176 0
-0.479115 11.97 0 -0.458915 12.1242 0 -0.431818 12.279 0 -0.399252
12.4324 0 -0.362568 12.5819 0 -0.322937 12.7226 0 -0.281289 12.8442
0 -0.238447 12.9226 0 -0.195697 12.9247 0 -0.150688 12.7753 0
-0.104848 12.3967 0 -0.0558547 11.6535 0 -0.021267 10.0287 0 0.00354547
11.0021 0 0.00126072 11.0003 0 0.0037495 11.0053 0 0.00256308 11.0084
0 -0.000397316 11.0114 0 -0.00545094 11.014 0 -0.0130289 11.0162 0
-0.0236749 11.018 0 -0.0380871 11.0199 0 -0.0570586 11.0224 0 -0.0814196
11.0266 0 -0.111942 11.0338 0 -0.149185 11.0461 0 -0.193262 11.0661
0 -0.243542 11.097 0 -0.298306 11.1426 0 -0.355144 11.2045 0
-0.41156 11.2833 0 -0.464207 11.3798 0 -0.509339 11.4941 0 -0.543083
11.6251 0 -0.561728 11.7707 0 -0.559902 11.9293 0 -0.54024 12.0938
0 -0.511913 12.2581 0 -0.476824 12.4209 0 -0.436675 12.5807 0
-0.393013 12.735 0 -0.347109 12.8793 0 -0.299976 13.0033 0 -0.253831
13.1029 0 -0.207158 13.129 0 -0.15791 12.9864 0 -0.109027 12.6109
0 -0.0575179 11.858 0 -0.0215363 10.2007 0 0.00358491 11.0051 0
0.00339002 11.002 0 0.00117406 11.0002 0 0.00239075 11.0081 0 -0.000558421
11.0109 0 -0.00556919 11.0132 0 -0.0130708 11.0149 0 -0.0236085 11.0162
0 -0.0378905 11.0171 0 -0.0567373 11.0183 0 -0.0810389 11.0205 0
-0.11168 11.025 0 -0.149419 11.0335 0 -0.194689 11.0485 0 -0.247353
11.0729 0 -0.306325 11.1105 0 -0.36923 11.1653 0 -0.433006 11.2387
0 -0.494653 11.3308 0 -0.550327 11.4419 0 -0.595927 11.5714 0
-0.627416 11.7176 0 -0.641135 11.8778 0 -0.631683 12.0498 0 -0.602862
12.2256 0 -0.565421 12.3989 0 -0.521629 12.5686 0 -0.473434 12.7336
0 -0.422521 12.8915 0 -0.370249 13.0379 0 -0.31952 13.1819 0
-0.269164 13.302 0 -0.217485 13.331 0 -0.164374 13.1926 0 -0.112613
12.8177 0 -0.0588901 12.0538 0 -0.0217077 10.3639 0 0.00223746 11.0079
0 0.00340383 11.0049 0 0.0031932 11.0018 0 0.00109103 11.0002 4.29384e-19
-0.000692869 11.0105 0 -0.00565577 11.0125 0 -0.0130757 11.0139 0 -0.0234935
11.0145 0 -0.0376192 11.0146 0 -0.0562891 11.0146 0 -0.0804322 11.0151
0 -0.111014 11.0172 0 -0.148938 11.0224 0 -0.194889 11.0327 0
-0.249122 11.0511 0 -0.31114 11.081 0 -0.379295 11.1266 0 -0.450462
11.1921 0 -0.520848 11.2785 0 -0.586968 11.3852 0 -0.644534 11.512
0 -0.689181 11.6575 0 -0.716836 11.8193 0 -0.724036 11.9938 0
-0.705474 12.1785 0 -0.666278 12.3647 0 -0.618835 12.5458 0 -0.565746
12.7213 0 -0.509148 12.8901 0 -0.450823 13.0502 0 -0.394568 13.2162
0 -0.339248 13.3792 0 -0.282944 13.4989 0 -0.226717 13.5285 0
-0.16997 13.3921 0 -0.115629 13.0161 0 -0.0599894 12.2401 0 -0.0217844
10.5181 0 -0.000815278 11.0101 0 0.00208687 11.0075 0 0.00318935 11.0047
1.87984e-18 0.00300243 11.0017 -1.35948e-18 0.00101115 11.0002 -8.71428e-19 -0.00571898 11.0119 0
-0.0130532 11.0129 0 -0.0233456 11.0131 0 -0.0373002 11.0125 0 -0.0557592
11.0114 0 -0.0796752 11.0104 0 -0.110068 11.0103 0 -0.147947 11.0125
0 -0.194187 11.0187 0 -0.249354 11.0316 0 -0.313425 11.0543 0
-0.385443 11.0909 0 -0.463102 11.1459 0 -0.542393 11.2236 0 -0.61877
11.3246 0 -0.68831 11.4473 0 -0.746364 11.5906 0 -0.788426 11.7526
0 -0.810535 11.9299 0 -0.809578 12.1184 0 -0.780464 12.3149 0
-0.729776 12.5103 0 -0.671574 12.698 0 -0.608719 12.8778 0 -0.543484
13.049 0 -0.480675 13.2287 0 -0.419329 13.4132 0 -0.357021 13.5745
0 -0.29525 13.6917 0 -0.234767 13.7199 0 -0.174723 13.5839 0
-0.118117 13.2057 0 -0.0608418 12.4167 0 -0.0217792 10.6629 0 -0.00578079
11.0114 0 -0.00089715 11.0096 -3.80554e-18 0.00192004 11.0071 -1.97933e-18 0.0029807 11.0044
9.54312e-19 0.002815 11.0016 -9.19327e-19 0.00093448 11.0002 0 -0.0130119 11.0121 0
-0.0231757 11.0118 0 -0.0369531 11.0106 0 -0.0551818 11.0086 0 -0.0788257
11.0062 0 -0.10894 11.0042 0 -0.146609 11.0037 0 -0.192845 11.0062
0 -0.248454 11.0141 0 -0.313795 11.0303 0 -0.388479 11.0584 0
-0.470998 11.1031 0 -0.558244 11.169 0 -0.645233 11.2607 0 -0.726666
11.3777 0 -0.798275 11.5175 0 -0.85516 11.6782 0 -0.892824 11.8569
0 -0.907587 12.0495 0 -0.896841 12.251 0 -0.855819 12.4583 0
-0.792665 12.6615 0 -0.723092 12.8543 0 -0.65014 13.037 0 -0.579813
13.2279 0 -0.511263 13.4261 0 -0.441713 13.6083 0 -0.372906 13.7657
0 -0.306025 13.8787 0 -0.241653 13.9041 0 -0.178692 13.7673 0
-0.120125 13.3858 0 -0.0614775 12.5834 0 -0.0217063 10.7986 0 -0.0129844
11.0114 0 -0.00574747 11.0107 8.00943e-18 -0.000945042 11.009 0 0.00176004 11.0067
2.00815e-18 0.00277908 11.0042 5.81544e-22 0.00263142 11.0015 0 0.000861011 11.0002 0
-0.0229929 11.0107 0 -0.0365906 11.0089 0 -0.0545816 11.0061 0 -0.0779277
11.0025 0 -0.107703 10.9988 0 -0.145045 10.9959 0 -0.191064 10.9952
0 -0.246747 10.9985 0 -0.312751 11.0087 0 -0.389148 11.0292 0
-0.4751 11.064 0 -0.568404 11.1182 0 -0.665044 11.1967 0 -0.758987
11.304 0 -0.844218 11.4385 0 -0.916253 11.5963 0 -0.970089 11.7749
0 -1.00141 11.9702 0 -1.00699 12.1775 0 -0.984873 12.3912 0
-0.930715 12.6078 0 -0.854287 12.8174 0 -0.772892 13.0137 0 -0.694111
13.2164 0 -0.617221 13.4262 0 -0.539022 13.6218 0 -0.461748 13.7995
0 -0.386873 13.9514 0 -0.315292 14.059 0 -0.247453 14.0806 0
-0.181943 13.9419 0 -0.121704 13.5562 0 -0.0619269 12.7402 0 -0.0215784
10.9254 0 -0.0228445 11.0097 0 -0.012785 11.0105 5.21334e-22 -0.00559525 11.01
0 -0.000990812 11.0085 -2.1133e-18 0.00160893 11.0063 4.13963e-22 0.00258467 11.004 0
0.00245175 11.0014 0 0.000790734 11.0001 0 -0.0362223 11.0074 0 -0.0539737
11.0039 0 -0.0770126 10.9993 0 -0.106416 10.9941 0 -0.143351 10.989
0 -0.189002 10.9853 0 -0.244487 10.9847 0 -0.310693 10.9895 0
-0.388057 11.0028 0 -0.476295 11.0287 0 -0.573978 11.0717 0 -0.678099
11.137 0 -0.783633 11.2299 0 -0.883448 11.3542 0 -0.970888 11.5075
0 -1.04144 11.6843 0 -1.09016 11.8809 0 -1.11312 12.0925 0
-1.1077 12.3135 0 -1.07273 12.538 0 -1.00436 12.7625 0 -0.914033
12.9766 0 -0.825924 13.1937 0 -0.739568 13.4157 0 -0.6513 13.6228
0 -0.563926 13.8137 0 -0.479421 13.9853 0 -0.398958 14.1305 0
-0.323148 14.2318 0 -0.252259 14.2487 0 -0.184547 14.1074 0 -0.122905
13.717 0 -0.0622161 12.8872 0 -0.0214067 11.0435 0 -0.035916 11.0061
0 -0.022418 11.0086 -4.42948e-18 -0.0123384 11.0095 0 -0.00544773 11.0092 0
-0.00102334 11.0079 6.42857e-18 0.00146661 11.0059 0 0.00239729 11.0037 0 0.00227614
11.0013 1.91566e-18 0.000723652 11.0001 0 -0.0533681 11.0019 0 -0.0760984 10.9964
0 -0.105116 10.9898 0 -0.141599 10.9829 0 -0.186779 10.9766 0
-0.241871 10.9724 0 -0.307935 10.9723 0 -0.385696 10.9793 0 -0.475315
10.9968 0 -0.576011 11.0294 0 -0.685658 11.0821 0 -0.800338 11.1602
0 -0.913931 11.2692 0 -1.01818 11.4123 0 -1.10593 11.5854 0
-1.17285 11.7816 0 -1.21427 11.9961 0 -1.22683 12.2233 0 -1.20867
12.4569 0 -1.15951 12.6909 0 -1.07603 12.9213 0 -0.977858 13.1572
0 -0.880931 13.3941 0 -0.781118 13.6137 0 -0.681953 13.8159 0
-0.585966 14.0003 0 -0.494782 14.1646 0 -0.409272 14.3023 0 -0.329709
14.3966 0 -0.256168 14.4082 0 -0.186578 14.2636 0 -0.123776 13.8681
0 -0.0623705 13.0247 0 -0.0212015 11.1533 0 -0.0528613 11.0002 0
-0.0351869 11.0046 0 -0.0215596 11.0073 -4.84076e-18 -0.0119085 11.0085 -4.67162e-18 -0.00528091
11.0084 -9.01111e-18 -0.00104253 11.0074 0 0.00133316 11.0056 -4.18487e-18 0.00221717 11.0035
-4.03065e-18 0.00210456 11.0012 1.93995e-18 0.000659603 11.0001 0 -0.0751959 10.9938 0
-0.103827 10.9861 0 -0.139839 10.9775 0 -0.184485 10.9689 0 -0.23905
10.9614 0 -0.304724 10.9571 0 -0.382453 10.9582 0 -0.472751 10.9683
0 -0.575372 10.9912 0 -0.688939 11.032 0 -0.810517 11.0961 0