%!PS-Adobe-3.0 EPSF-3.0
%%LanguageLevel: 3
%%Title: yPlus_yPlusaverage.eps
%%Creator: Matplotlib v3.10.0, https://matplotlib.org/
%%CreationDate: Mon Feb 17 10:46:12 2025
%%Orientation: portrait
%%BoundingBox: 0 0 461 346
%%HiResBoundingBox: 0.000000 0.000000 460.800000 345.600000
%%EndComments
%%BeginProlog
/mpldict 9 dict def
mpldict begin
/_d { bind def } bind def
/m { moveto } _d
/l { lineto } _d
/r { rlineto } _d
/c { curveto } _d
/cl { closepath } _d
/ce { closepath eofill } _d
/sc { setcachedevice } _d
%!PS-Adobe-3.0 Resource-Font
%%Creator: Converted from TrueType to Type 3 by Matplotlib.
10 dict begin
/FontName /DejaVuSans def
/PaintType 0 def
/FontMatrix [0.00048828125 0 0 0.00048828125 0 0] def
/FontBBox [-2090 -948 3673 2524] def
/FontType 3 def
/Encoding [/space /period /zero /one /two /three /four /five /P /T /bracketleft /bracketright /a /b /c /d /e /g /i /k /l /m /p /r /s /t /u /v /y] def
/CharStrings 30 dict dup begin
/.notdef 0 def
/space{651 0 0 0 0 0 sc
ce} _d
/period{651 0 219 0 430 254 sc
219 254 m
430 254 l
430 0 l
219 0 l
219 254 l

ce} _d
/zero{1303 0 135 -29 1167 1520 sc
651 1360 m
547 1360 469 1309 416 1206 c
364 1104 338 950 338 745 c
338 540 364 387 416 284 c
469 182 547 131 651 131 c
756 131 834 182 886 284 c
939 387 965 540 965 745 c
965 950 939 1104 886 1206 c
834 1309 756 1360 651 1360 c

651 1520 m
818 1520 946 1454 1034 1321 c
1123 1189 1167 997 1167 745 c
1167 494 1123 302 1034 169 c
946 37 818 -29 651 -29 c
484 -29 356 37 267 169 c
179 302 135 494 135 745 c
135 997 179 1189 267 1321 c
356 1454 484 1520 651 1520 c

ce} _d
/one{1303 0 225 0 1114 1493 sc
254 170 m
584 170 l
584 1309 l
225 1237 l
225 1421 l
582 1493 l
784 1493 l
784 170 l
1114 170 l
1114 0 l
254 0 l
254 170 l

ce} _d
/two{1303 0 150 0 1098 1520 sc
393 170 m
1098 170 l
1098 0 l
150 0 l
150 170 l
227 249 331 356 463 489 c
596 623 679 709 713 748 c
778 821 823 882 848 932 c
874 983 887 1032 887 1081 c
887 1160 859 1225 803 1275 c
748 1325 675 1350 586 1350 c
523 1350 456 1339 385 1317 c
315 1295 240 1262 160 1217 c
160 1421 l
241 1454 317 1478 388 1495 c
459 1512 523 1520 582 1520 c
737 1520 860 1481 952 1404 c
1044 1327 1090 1223 1090 1094 c
1090 1033 1078 974 1055 919 c
1032 864 991 800 930 725 c
913 706 860 650 771 557 c
682 465 556 336 393 170 c

ce} _d
/three{1303 0 156 -29 1139 1520 sc
831 805 m
928 784 1003 741 1057 676 c
1112 611 1139 530 1139 434 c
1139 287 1088 173 987 92 c
886 11 742 -29 555 -29 c
492 -29 428 -23 361 -10 c
295 2 227 20 156 45 c
156 240 l
212 207 273 183 340 166 c
407 149 476 141 549 141 c
676 141 772 166 838 216 c
905 266 938 339 938 434 c
938 522 907 591 845 640 c
784 690 698 715 588 715 c
414 715 l
414 881 l
596 881 l
695 881 771 901 824 940 c
877 980 903 1037 903 1112 c
903 1189 876 1247 821 1288 c
767 1329 689 1350 588 1350 c
533 1350 473 1344 410 1332 c
347 1320 277 1301 201 1276 c
201 1456 l
278 1477 349 1493 416 1504 c
483 1515 547 1520 606 1520 c
759 1520 881 1485 970 1415 c
1059 1346 1104 1252 1104 1133 c
1104 1050 1080 980 1033 923 c
986 866 918 827 831 805 c

ce} _d
/four{1303 0 100 0 1188 1493 sc
774 1317 m
264 520 l
774 520 l
774 1317 l

721 1493 m
975 1493 l
975 520 l
1188 520 l
1188 352 l
975 352 l
975 0 l
774 0 l
774 352 l
100 352 l
100 547 l
721 1493 l

ce} _d
/five{1303 0 158 -29 1124 1493 sc
221 1493 m
1014 1493 l
1014 1323 l
406 1323 l
406 957 l
435 967 465 974 494 979 c
523 984 553 987 582 987 c
749 987 881 941 978 850 c
1075 759 1124 635 1124 479 c
1124 318 1074 193 974 104 c
874 15 733 -29 551 -29 c
488 -29 424 -24 359 -13 c
294 -2 227 14 158 35 c
158 238 l
218 205 280 181 344 165 c
408 149 476 141 547 141 c
662 141 754 171 821 232 c
888 293 922 375 922 479 c
922 583 888 665 821 726 c
754 787 662 817 547 817 c
493 817 439 811 385 799 c
332 787 277 768 221 743 c
221 1493 l

ce} _d
/P{1235 0 201 0 1165 1493 sc
403 1327 m
403 766 l
657 766 l
751 766 824 790 875 839 c
926 888 952 957 952 1047 c
952 1136 926 1205 875 1254 c
824 1303 751 1327 657 1327 c
403 1327 l

201 1493 m
657 1493 l
824 1493 951 1455 1036 1379 c
1122 1304 1165 1193 1165 1047 c
1165 900 1122 788 1036 713 c
951 638 824 600 657 600 c
403 600 l
403 0 l
201 0 l
201 1493 l

ce} _d
/T{1251 0 -6 0 1257 1493 sc
-6 1493 m
1257 1493 l
1257 1323 l
727 1323 l
727 0 l
524 0 l
524 1323 l
-6 1323 l
-6 1493 l

ce} _d
/bracketleft{799 0 176 -270 600 1556 sc
176 1556 m
600 1556 l
600 1413 l
360 1413 l
360 -127 l
600 -127 l
600 -270 l
176 -270 l
176 1556 l

ce} _d
/bracketright{799 0 199 -270 623 1556 sc
623 1556 m
623 -270 l
199 -270 l
199 -127 l
438 -127 l
438 1413 l
199 1413 l
199 1556 l
623 1556 l

ce} _d
/a{1255 0 123 -29 1069 1147 sc
702 563 m
553 563 450 546 393 512 c
336 478 307 420 307 338 c
307 273 328 221 371 182 c
414 144 473 125 547 125 c
649 125 731 161 792 233 c
854 306 885 402 885 522 c
885 563 l
702 563 l

1069 639 m
1069 0 l
885 0 l
885 170 l
843 102 791 52 728 19 c
665 -13 589 -29 498 -29 c
383 -29 292 3 224 67 c
157 132 123 218 123 326 c
123 452 165 547 249 611 c
334 675 460 707 627 707 c
885 707 l
885 725 l
885 810 857 875 801 921 c
746 968 668 991 567 991 c
503 991 441 983 380 968 c
319 953 261 930 205 899 c
205 1069 l
272 1095 338 1114 401 1127 c
464 1140 526 1147 586 1147 c
748 1147 869 1105 949 1021 c
1029 937 1069 810 1069 639 c

ce} _d
/b{1300 0 186 -29 1188 1556 sc
997 559 m
997 694 969 800 913 877 c
858 954 781 993 684 993 c
587 993 510 954 454 877 c
399 800 371 694 371 559 c
371 424 399 317 454 240 c
510 163 587 125 684 125 c
781 125 858 163 913 240 c
969 317 997 424 997 559 c

371 950 m
410 1017 458 1066 517 1098 c
576 1131 647 1147 729 1147 c
865 1147 975 1093 1060 985 c
1145 877 1188 735 1188 559 c
1188 383 1145 241 1060 133 c
975 25 865 -29 729 -29 c
647 -29 576 -13 517 19 c
458 52 410 101 371 168 c
371 0 l
186 0 l
186 1556 l
371 1556 l
371 950 l

ce} _d
/c{1126 0 113 -29 999 1147 sc
999 1077 m
999 905 l
947 934 895 955 842 969 c
790 984 737 991 684 991 c
565 991 472 953 406 877 c
340 802 307 696 307 559 c
307 422 340 316 406 240 c
472 165 565 127 684 127 c
737 127 790 134 842 148 c
895 163 947 184 999 213 c
999 43 l
948 19 894 1 839 -11 c
784 -23 726 -29 664 -29 c
495 -29 361 24 262 130 c
163 236 113 379 113 559 c
113 742 163 885 263 990 c
364 1095 501 1147 676 1147 c
733 1147 788 1141 842 1129 c
896 1118 948 1100 999 1077 c

ce} _d
/d{1300 0 113 -29 1114 1556 sc
930 950 m
930 1556 l
1114 1556 l
1114 0 l
930 0 l
930 168 l
891 101 842 52 783 19 c
724 -13 654 -29 571 -29 c
436 -29 325 25 240 133 c
155 241 113 383 113 559 c
113 735 155 877 240 985 c
325 1093 436 1147 571 1147 c
654 1147 724 1131 783 1098 c
842 1066 891 1017 930 950 c

303 559 m
303 424 331 317 386 240 c
442 163 519 125 616 125 c
713 125 790 163 846 240 c
902 317 930 424 930 559 c
930 694 902 800 846 877 c
790 954 713 993 616 993 c
519 993 442 954 386 877 c
331 800 303 694 303 559 c

ce} _d
/e{1260 0 113 -29 1151 1147 sc
1151 606 m
1151 516 l
305 516 l
313 389 351 293 419 226 c
488 160 583 127 705 127 c
776 127 844 136 910 153 c
977 170 1043 196 1108 231 c
1108 57 l
1042 29 974 8 905 -7 c
836 -22 765 -29 694 -29 c
515 -29 374 23 269 127 c
165 231 113 372 113 549 c
113 732 162 878 261 985 c
360 1093 494 1147 662 1147 c
813 1147 932 1098 1019 1001 c
1107 904 1151 773 1151 606 c

967 660 m
966 761 937 841 882 901 c
827 961 755 991 664 991 c
561 991 479 962 417 904 c
356 846 320 764 311 659 c
967 660 l

ce} _d
/g{1300 0 113 -426 1114 1147 sc
930 573 m
930 706 902 810 847 883 c
792 956 715 993 616 993 c
517 993 440 956 385 883 c
330 810 303 706 303 573 c
303 440 330 337 385 264 c
440 191 517 154 616 154 c
715 154 792 191 847 264 c
902 337 930 440 930 573 c

1114 139 m
1114 -52 1072 -193 987 -286 c
902 -379 773 -426 598 -426 c
533 -426 472 -421 415 -411 c
358 -402 302 -387 248 -367 c
248 -188 l
302 -217 355 -239 408 -253 c
461 -267 514 -274 569 -274 c
690 -274 780 -242 840 -179 c
900 -116 930 -21 930 106 c
930 197 l
892 131 843 82 784 49 c
725 16 654 0 571 0 c
434 0 323 52 239 157 c
155 262 113 400 113 573 c
113 746 155 885 239 990 c
323 1095 434 1147 571 1147 c
654 1147 725 1131 784 1098 c
843 1065 892 1016 930 950 c
930 1120 l
1114 1120 l
1114 139 l

ce} _d
/i{569 0 193 0 377 1556 sc
193 1120 m
377 1120 l
377 0 l
193 0 l
193 1120 l

193 1556 m
377 1556 l
377 1323 l
193 1323 l
193 1556 l

ce} _d
/k{1186 0 186 0 1180 1556 sc
186 1556 m
371 1556 l
371 637 l
920 1120 l
1155 1120 l
561 596 l
1180 0 l
940 0 l
371 547 l
371 0 l
186 0 l
186 1556 l

ce} _d
/l{569 0 193 0 377 1556 sc
193 1556 m
377 1556 l
377 0 l
193 0 l
193 1556 l

ce} _d
/m{1995 0 186 0 1821 1147 sc
1065 905 m
1111 988 1166 1049 1230 1088 c
1294 1127 1369 1147 1456 1147 c
1573 1147 1663 1106 1726 1024 c
1789 943 1821 827 1821 676 c
1821 0 l
1636 0 l
1636 670 l
1636 777 1617 857 1579 909 c
1541 961 1483 987 1405 987 c
1310 987 1234 955 1179 892 c
1124 829 1096 742 1096 633 c
1096 0 l
911 0 l
911 670 l
911 778 892 858 854 909 c
816 961 757 987 678 987 c
584 987 509 955 454 891 c
399 828 371 742 371 633 c
371 0 l
186 0 l
186 1120 l
371 1120 l
371 946 l
413 1015 463 1065 522 1098 c
581 1131 650 1147 731 1147 c
812 1147 881 1126 938 1085 c
995 1044 1038 984 1065 905 c

ce} _d
/p{1300 0 186 -426 1188 1147 sc
371 168 m
371 -426 l
186 -426 l
186 1120 l
371 1120 l
371 950 l
410 1017 458 1066 517 1098 c
576 1131 647 1147 729 1147 c
865 1147 975 1093 1060 985 c
1145 877 1188 735 1188 559 c
1188 383 1145 241 1060 133 c
975 25 865 -29 729 -29 c
647 -29 576 -13 517 19 c
458 52 410 101 371 168 c

997 559 m
997 694 969 800 913 877 c
858 954 781 993 684 993 c
587 993 510 954 454 877 c
399 800 371 694 371 559 c
371 424 399 317 454 240 c
510 163 587 125 684 125 c
781 125 858 163 913 240 c
969 317 997 424 997 559 c

ce} _d
/r{842 0 186 0 842 1147 sc
842 948 m
821 960 799 969 774 974 c
750 980 723 983 694 983 c
590 983 510 949 454 881 c
399 814 371 717 371 590 c
371 0 l
186 0 l
186 1120 l
371 1120 l
371 946 l
410 1014 460 1064 522 1097 c
584 1130 659 1147 748 1147 c
761 1147 775 1146 790 1144 c
805 1143 822 1140 841 1137 c
842 948 l

ce} _d
/s{1067 0 111 -29 967 1147 sc
907 1087 m
907 913 l
855 940 801 960 745 973 c
689 986 631 993 571 993 c
480 993 411 979 365 951 c
320 923 297 881 297 825 c
297 782 313 749 346 724 c
379 700 444 677 543 655 c
606 641 l
737 613 829 573 884 522 c
939 471 967 400 967 309 c
967 205 926 123 843 62 c
761 1 648 -29 504 -29 c
444 -29 381 -23 316 -11 c
251 0 183 18 111 41 c
111 231 l
179 196 246 169 312 151 c
378 134 443 125 508 125 c
595 125 661 140 708 169 c
755 199 778 241 778 295 c
778 345 761 383 727 410 c
694 437 620 462 506 487 c
442 502 l
328 526 246 563 195 612 c
144 662 119 730 119 817 c
119 922 156 1004 231 1061 c
306 1118 412 1147 549 1147 c
617 1147 681 1142 741 1132 c
801 1122 856 1107 907 1087 c

ce} _d
/t{803 0 55 0 754 1438 sc
375 1438 m
375 1120 l
754 1120 l
754 977 l
375 977 l
375 369 l
375 278 387 219 412 193 c
437 167 488 154 565 154 c
754 154 l
754 0 l
565 0 l
423 0 325 26 271 79 c
217 132 190 229 190 369 c
190 977 l
55 977 l
55 1120 l
190 1120 l
190 1438 l
375 1438 l

ce} _d
/u{1298 0 174 -29 1112 1147 sc
174 442 m
174 1120 l
358 1120 l
358 449 l
358 343 379 263 420 210 c
461 157 523 131 606 131 c
705 131 784 163 841 226 c
899 289 928 376 928 485 c
928 1120 l
1112 1120 l
1112 0 l
928 0 l
928 172 l
883 104 831 53 772 20 c
713 -13 645 -29 567 -29 c
438 -29 341 11 274 91 c
207 171 174 288 174 442 c

637 1147 m
637 1147 l

ce} _d
/v{1212 0 61 0 1151 1120 sc
61 1120 m
256 1120 l
606 180 l
956 1120 l
1151 1120 l
731 0 l
481 0 l
61 1120 l

ce} _d
/y{1212 0 61 -426 1151 1120 sc
659 -104 m
607 -237 556 -324 507 -365 c
458 -406 392 -426 309 -426 c
162 -426 l
162 -272 l
270 -272 l
321 -272 360 -260 388 -236 c
416 -212 447 -155 481 -66 c
514 18 l
61 1120 l
256 1120 l
606 244 l
956 1120 l
1151 1120 l
659 -104 l

ce} _d
end readonly def

/BuildGlyph {
 exch begin
 CharStrings exch
 2 copy known not {pop /.notdef} if
 true 3 1 roll get exec
 end
} _d

/BuildChar {
 1 index /Encoding get exch get
 1 index /BuildGlyph get exec
} _d

FontName currentdict end definefont pop
end
%%EndProlog
mpldict begin
0 0 translate
0 0 460.8 345.6 rectclip
gsave
0 0 m
460.8 0 l
460.8 345.6 l
0 345.6 l
cl
1 setgray
fill
grestore
gsave
57.6 38.016 m
414.72 38.016 l
414.72 304.128 l
57.6 304.128 l
cl
1 setgray
fill
grestore
0.8 setlinewidth
1 setlinejoin
2 setlinecap
[] 0 setdash
0.69 setgray
gsave
57.6 38.016 357.12 266.112 rectclip
73.832727 38.016 m
73.832727 304.128 l
stroke
grestore
0 setlinecap
0 setgray
gsave
/o {
gsave
newpath
translate
0.8 setlinewidth
1 setlinejoin

0 setlinecap

0 0 m
0 -3.5 l

gsave
0 setgray
fill
grestore
stroke
grestore
} bind def
73.8327 38.016 o
grestore
/DejaVuSans 10.000 selectfont
gsave

65.8796 23.4222 translate
0 rotate
0 0 m /zero glyphshow
6.3623 0 m /period glyphshow
9.54102 0 m /zero glyphshow
grestore
2 setlinecap
0.69 setgray
gsave
57.6 38.016 357.12 266.112 rectclip
138.763636 38.016 m
138.763636 304.128 l
stroke
grestore
0 setlinecap
0 setgray
gsave
/o {
gsave
newpath
translate
0.8 setlinewidth
1 setlinejoin

0 setlinecap

0 0 m
0 -3.5 l

gsave
0 setgray
fill
grestore
stroke
grestore
} bind def
138.764 38.016 o
grestore
/DejaVuSans 10.000 selectfont
gsave

130.811 23.4222 translate
0 rotate
0 0 m /zero glyphshow
6.3623 0 m /period glyphshow
9.54102 0 m /one glyphshow
grestore
2 setlinecap
0.69 setgray
gsave
57.6 38.016 357.12 266.112 rectclip
203.694545 38.016 m
203.694545 304.128 l
stroke
grestore
0 setlinecap
0 setgray
gsave
/o {
gsave
newpath
translate
0.8 setlinewidth
1 setlinejoin

0 setlinecap

0 0 m
0 -3.5 l

gsave
0 setgray
fill
grestore
stroke
grestore
} bind def
203.695 38.016 o
grestore
/DejaVuSans 10.000 selectfont
gsave

195.741 23.4222 translate
0 rotate
0 0 m /zero glyphshow
6.3623 0 m /period glyphshow
9.54102 0 m /two glyphshow
grestore
2 setlinecap
0.69 setgray
gsave
57.6 38.016 357.12 266.112 rectclip
268.625455 38.016 m
268.625455 304.128 l
stroke
grestore
0 setlinecap
0 setgray
gsave
/o {
gsave
newpath
translate
0.8 setlinewidth
1 setlinejoin

0 setlinecap

0 0 m
0 -3.5 l

gsave
0 setgray
fill
grestore
stroke
grestore
} bind def
268.625 38.016 o
grestore
/DejaVuSans 10.000 selectfont
gsave

260.672 23.4222 translate
0 rotate
0 0 m /zero glyphshow
6.3623 0 m /period glyphshow
9.54102 0 m /three glyphshow
grestore
2 setlinecap
0.69 setgray
gsave
57.6 38.016 357.12 266.112 rectclip
333.556364 38.016 m
333.556364 304.128 l
stroke
grestore
0 setlinecap
0 setgray
gsave
/o {
gsave
newpath
translate
0.8 setlinewidth
1 setlinejoin

0 setlinecap

0 0 m
0 -3.5 l

gsave
0 setgray
fill
grestore
stroke
grestore
} bind def
333.556 38.016 o
grestore
/DejaVuSans 10.000 selectfont
gsave

325.603 23.4222 translate
0 rotate
0 0 m /zero glyphshow
6.3623 0 m /period glyphshow
9.54102 0 m /four glyphshow
grestore
2 setlinecap
0.69 setgray
gsave
57.6 38.016 357.12 266.112 rectclip
398.487273 38.016 m
398.487273 304.128 l
stroke
grestore
0 setlinecap
0 setgray
gsave
/o {
gsave
newpath
translate
0.8 setlinewidth
1 setlinejoin

0 setlinecap

0 0 m
0 -3.5 l

gsave
0 setgray
fill
grestore
stroke
grestore
} bind def
398.487 38.016 o
grestore
/DejaVuSans 10.000 selectfont
gsave

390.534 23.4222 translate
0 rotate
0 0 m /zero glyphshow
6.3623 0 m /period glyphshow
9.54102 0 m /five glyphshow
grestore
/DejaVuSans 10.000 selectfont
gsave

215.777 9.75037 translate
0 rotate
0 0 m /T glyphshow
5.8584 0 m /i glyphshow
8.63672 0 m /m glyphshow
18.3779 0 m /e glyphshow
24.5303 0 m /space glyphshow
27.709 0 m /bracketleft glyphshow
31.6104 0 m /s glyphshow
36.8203 0 m /bracketright glyphshow
grestore
2 setlinecap
0.69 setgray
gsave
57.6 38.016 357.12 266.112 rectclip
57.6 53.074777 m
414.72 53.074777 l
stroke
grestore
0 setlinecap
0 setgray
gsave
/o {
gsave
newpath
translate
0.8 setlinewidth
1 setlinejoin

0 setlinecap

-0 0 m
-3.5 0 l

gsave
0 setgray
fill
grestore
stroke
grestore
} bind def
57.6 53.0748 o
grestore
/DejaVuSans 10.000 selectfont
gsave

44.2406 49.2779 translate
0 rotate
0 0 m /five glyphshow
grestore
2 setlinecap
0.69 setgray
gsave
57.6 38.016 357.12 266.112 rectclip
57.6 89.167556 m
414.72 89.167556 l
stroke
grestore
0 setlinecap
0 setgray
gsave
/o {
gsave
newpath
translate
0.8 setlinewidth
1 setlinejoin

0 setlinecap

-0 0 m
-3.5 0 l

gsave
0 setgray
fill
grestore
stroke
grestore
} bind def
57.6 89.1676 o
grestore
/DejaVuSans 10.000 selectfont
gsave

37.8813 85.3707 translate
0 rotate
0 0 m /one glyphshow
6.3623 0 m /zero glyphshow
grestore
2 setlinecap
0.69 setgray
gsave
57.6 38.016 357.12 266.112 rectclip
57.6 125.260335 m
414.72 125.260335 l
stroke
grestore
0 setlinecap
0 setgray
gsave
/o {
gsave
newpath
translate
0.8 setlinewidth
1 setlinejoin

0 setlinecap

-0 0 m
-3.5 0 l

gsave
0 setgray
fill
grestore
stroke
grestore
} bind def
57.6 125.26 o
grestore
/DejaVuSans 10.000 selectfont
gsave

37.8813 121.463 translate
0 rotate
0 0 m /one glyphshow
6.3623 0 m /five glyphshow
grestore
2 setlinecap
0.69 setgray
gsave
57.6 38.016 357.12 266.112 rectclip
57.6 161.353113 m
414.72 161.353113 l
stroke
grestore
0 setlinecap
0 setgray
gsave
/o {
gsave
newpath
translate
0.8 setlinewidth
1 setlinejoin

0 setlinecap

-0 0 m
-3.5 0 l

gsave
0 setgray
fill
grestore
stroke
grestore
} bind def
57.6 161.353 o
grestore
/DejaVuSans 10.000 selectfont
gsave

37.8813 157.556 translate
0 rotate
0 0 m /two glyphshow
6.3623 0 m /zero glyphshow
grestore
2 setlinecap
0.69 setgray
gsave
57.6 38.016 357.12 266.112 rectclip
57.6 197.445892 m
414.72 197.445892 l
stroke
grestore
0 setlinecap
0 setgray
gsave
/o {
gsave
newpath
translate
0.8 setlinewidth
1 setlinejoin

0 setlinecap

-0 0 m
-3.5 0 l

gsave
0 setgray
fill
grestore
stroke
grestore
} bind def
57.6 197.446 o
grestore
/DejaVuSans 10.000 selectfont
gsave

37.8813 193.649 translate
0 rotate
0 0 m /two glyphshow
6.3623 0 m /five glyphshow
grestore
2 setlinecap
0.69 setgray
gsave
57.6 38.016 357.12 266.112 rectclip
57.6 233.538671 m
414.72 233.538671 l
stroke
grestore
0 setlinecap
0 setgray
gsave
/o {
gsave
newpath
translate
0.8 setlinewidth
1 setlinejoin

0 setlinecap

-0 0 m
-3.5 0 l

gsave
0 setgray
fill
grestore
stroke
grestore
} bind def
57.6 233.539 o
grestore
/DejaVuSans 10.000 selectfont
gsave

37.8813 229.742 translate
0 rotate
0 0 m /three glyphshow
6.3623 0 m /zero glyphshow
grestore
2 setlinecap
0.69 setgray
gsave
57.6 38.016 357.12 266.112 rectclip
57.6 269.63145 m
414.72 269.63145 l
stroke
grestore
0 setlinecap
0 setgray
gsave
/o {
gsave
newpath
translate
0.8 setlinewidth
1 setlinejoin

0 setlinecap

-0 0 m
-3.5 0 l

gsave
0 setgray
fill
grestore
stroke
grestore
} bind def
57.6 269.631 o
grestore
/DejaVuSans 10.000 selectfont
gsave

37.8813 265.835 translate
0 rotate
0 0 m /three glyphshow
6.3623 0 m /five glyphshow
grestore
1.5 setlinewidth
2 setlinecap
0.122 0.467 0.706 setrgbcolor
gsave
57.6 38.016 357.12 266.112 rectclip
73.832727 89.791816 m
80.325818 292.032 l
86.818909 222.732565 l
93.312 224.840023 l
99.805091 211.765558 l
106.298182 194.3243 l
112.791273 191.673285 l
119.284364 189.646243 l
125.777455 189.756398 l
132.270545 189.613037 l
138.763636 189.248428 l
145.256727 188.956726 l
151.749818 188.689495 l
158.242909 188.508526 l
164.736 188.387976 l
171.229091 188.228446 l
177.722182 188.009291 l
184.215273 187.752816 l
190.708364 187.491143 l
197.201455 187.245351 l
203.694545 187.031177 l
210.187636 186.85591 l
216.680727 186.718469 l
223.173818 186.614955 l
229.666909 186.525084 l
236.16 186.459611 l
242.653091 186.41926 l
249.146182 186.416156 l
255.639273 186.442792 l
262.132364 186.471883 l
268.625455 186.46849 l
275.118545 186.457229 l
281.611636 186.509925 l
288.104727 186.536705 l
294.597818 186.496787 l
301.090909 186.386271 l
307.584 186.33538 l
314.077091 186.467119 l
320.570182 186.663175 l
327.063273 186.599363 l
333.556364 186.58738 l
340.049455 186.497076 l
346.542545 186.332853 l
353.035636 186.326285 l
359.528727 186.615893 l
366.021818 186.679344 l
372.514909 186.631196 l
379.008 186.560743 l
385.501091 186.386848 l
391.994182 186.315818 l
398.487273 186.578717 l
stroke
grestore
1 0.498 0.055 setrgbcolor
gsave
57.6 38.016 357.12 266.112 rectclip
73.832727 65.795872 m
80.325818 195.969337 l
86.818909 203.433756 l
93.312 162.520498 l
99.805091 132.133266 l
106.298182 111.877565 l
112.791273 102.236534 l
119.284364 98.570158 l
125.777455 94.614461 l
132.270545 89.165433 l
138.763636 81.568077 l
145.256727 74.675078 l
151.749818 69.318938 l
158.242909 65.127376 l
164.736 61.770805 l
171.229091 59.009599 l
177.722182 56.823921 l
184.215273 55.147592 l
190.708364 53.897894 l
197.201455 52.928529 l
203.694545 52.16464 l
210.187636 51.557927 l
216.680727 51.075822 l
223.173818 50.696717 l
229.666909 50.409051 l
236.16 50.209588 l
242.653091 50.112 l
249.146182 50.155752 l
255.639273 50.432049 l
262.132364 51.117133 l
268.625455 52.539571 l
275.118545 55.156464 l
281.611636 59.2849 l
288.104727 64.579639 l
294.597818 70.055014 l
301.090909 74.761578 l
307.584 78.246798 l
314.077091 80.64268 l
320.570182 82.269316 l
327.063273 83.112342 l
333.556364 83.598981 l
340.049455 83.947861 l
346.542545 84.328185 l
353.035636 84.535055 l
359.528727 84.503582 l
366.021818 84.185655 l
372.514909 84.024732 l
379.008 83.927108 l
385.501091 84.04254 l
391.994182 84.428754 l
398.487273 84.371201 l
stroke
grestore
0.173 0.627 0.173 setrgbcolor
gsave
57.6 38.016 357.12 266.112 rectclip
73.832727 85.442449 m
80.325818 173.783611 l
86.818909 147.281694 l
93.312 135.260344 l
99.805091 120.436751 l
106.298182 109.418853 l
112.791273 102.672679 l
119.284364 99.401735 l
125.777455 99.193769 l
132.270545 99.32031 l
138.763636 99.573393 l
145.256727 99.877727 l
151.749818 100.19722 l
158.242909 100.502926 l
164.736 100.72172 l
171.229091 100.830215 l
177.722182 100.861183 l
184.215273 100.841043 l
190.708364 100.792823 l
197.201455 100.730383 l
203.694545 100.6626 l
210.187636 100.596623 l
216.680727 100.535337 l
223.173818 100.479538 l
229.666909 100.419768 l
236.16 100.353718 l
242.653091 100.274386 l
249.146182 100.17773 l
255.639273 100.049601 l
262.132364 99.662614 l
268.625455 99.251734 l
275.118545 99.035899 l
281.611636 98.816455 l
288.104727 98.625596 l
294.597818 98.463034 l
301.090909 98.343928 l
307.584 98.329347 l
314.077091 98.430912 l
320.570182 98.536736 l
327.063273 98.512193 l
333.556364 98.407235 l
340.049455 98.298523 l
346.542545 98.215077 l
353.035636 98.288417 l
359.528727 98.489526 l
366.021818 98.567487 l
372.514909 98.472779 l
379.008 98.354034 l
385.501091 98.244529 l
391.994182 98.273258 l
398.487273 98.473934 l
stroke
grestore
0.8 setlinewidth
0 setlinejoin
0 setgray
gsave
57.6 38.016 m
57.6 304.128 l
stroke
grestore
gsave
414.72 38.016 m
414.72 304.128 l
stroke
grestore
gsave
57.6 38.016 m
414.72 38.016 l
stroke
grestore
gsave
57.6 304.128 m
414.72 304.128 l
stroke
grestore
/DejaVuSans 12.000 selectfont
gsave

220.394 310.128 translate
0 rotate
0 0 m /y glyphshow
7.10156 0 m /P glyphshow
14.3379 0 m /l glyphshow
17.6719 0 m /u glyphshow
25.2773 0 m /s glyphshow
grestore
1 setlinewidth
0 setlinecap
0.8 setgray
gsave
266.87625 252.112375 m
407.72 252.112375 l
409.053333 252.112375 409.72 252.779042 409.72 254.112375 c
409.72 297.128 l
409.72 298.461333 409.053333 299.128 407.72 299.128 c
266.87625 299.128 l
265.542917 299.128 264.87625 298.461333 264.87625 297.128 c
264.87625 254.112375 l
264.87625 252.779042 265.542917 252.112375 266.87625 252.112375 c
cl
gsave
1 setgray
fill
grestore
stroke
grestore
1.5 setlinewidth
1 setlinejoin
2 setlinecap
0.122 0.467 0.706 setrgbcolor
gsave
268.87625 291.03425 m
278.87625 291.03425 l
288.87625 291.03425 l
stroke
grestore
0 setgray
/DejaVuSans 10.000 selectfont
gsave

296.876 287.534 translate
0 rotate
0 0 m /s glyphshow
5.20996 0 m /p glyphshow
11.5576 0 m /l glyphshow
14.3359 0 m /i glyphshow
17.1143 0 m /t glyphshow
21.0352 0 m /t glyphshow
24.9561 0 m /e glyphshow
31.1084 0 m /r glyphshow
35.2197 0 m /space glyphshow
38.3984 0 m /y glyphshow
44.3164 0 m /P glyphshow
50.3467 0 m /l glyphshow
53.125 0 m /u glyphshow
59.4629 0 m /s glyphshow
64.6729 0 m /space glyphshow
67.8516 0 m /a glyphshow
73.9795 0 m /v glyphshow
79.8975 0 m /e glyphshow
86.0498 0 m /r glyphshow
90.1611 0 m /a glyphshow
96.2891 0 m /g glyphshow
102.637 0 m /e glyphshow
grestore
1 0.498 0.055 setrgbcolor
gsave
268.87625 276.362375 m
278.87625 276.362375 l
288.87625 276.362375 l
stroke
grestore
0 setgray
/DejaVuSans 10.000 selectfont
gsave

296.876 272.862 translate
0 rotate
0 0 m /b glyphshow
6.34766 0 m /a glyphshow
12.4756 0 m /c glyphshow
17.9736 0 m /k glyphshow
23.7646 0 m /space glyphshow
26.9434 0 m /y glyphshow
32.8613 0 m /P glyphshow
38.8916 0 m /l glyphshow
41.6699 0 m /u glyphshow
48.0078 0 m /s glyphshow
53.2178 0 m /space glyphshow
56.3965 0 m /a glyphshow
62.5244 0 m /v glyphshow
68.4424 0 m /e glyphshow
74.5947 0 m /r glyphshow
78.7061 0 m /a glyphshow
84.834 0 m /g glyphshow
91.1816 0 m /e glyphshow
grestore
0.173 0.627 0.173 setrgbcolor
gsave
268.87625 261.6905 m
278.87625 261.6905 l
288.87625 261.6905 l
stroke
grestore
0 setgray
/DejaVuSans 10.000 selectfont
gsave

296.876 258.19 translate
0 rotate
0 0 m /s glyphshow
5.20996 0 m /i glyphshow
7.98828 0 m /d glyphshow
14.3359 0 m /e glyphshow
20.4883 0 m /s glyphshow
25.6982 0 m /space glyphshow
28.877 0 m /y glyphshow
34.7949 0 m /P glyphshow
40.8252 0 m /l glyphshow
43.6035 0 m /u glyphshow
49.9414 0 m /s glyphshow
55.1514 0 m /space glyphshow
58.3301 0 m /a glyphshow
64.458 0 m /v glyphshow
70.376 0 m /e glyphshow
76.5283 0 m /r glyphshow
80.6396 0 m /a glyphshow
86.7676 0 m /g glyphshow
93.1152 0 m /e glyphshow
grestore

end
showpage
