# vtk DataFile Version 2.0
sampleSurface
ASCII
DATASET POLYDATA
POINTS 15978 float
-4.26165e-19 0.000133477 0 -4.18079e-19 -0.000798814 0 -4.33681e-19 0.001 0 -4.09379e-19 -0.00180187
0 -0.00181681 0.000361473 0 0.00181681 0.000361473 0 -0.00181396 -0.000575145 0
0.00181396 -0.000575145 0 -0.00181945 0.00123202 0 0.00181945 0.00123202 0 -0.00181089
-0.00158285 0 0.00181089 -0.00158285 0 -4.00018e-19 -0.00288105 0 -0.00180759 -0.00266704
0 0.00180759 -0.00266704 0 -0.00351565 8.15481e-05 0 0.00351565 8.15481e-05 0
-0.00351186 -0.000939823 0 0.00351186 -0.000939823 0 -0.00351918 0.00103087 0 0.00351918
0.00103087 0 -0.00352245 0.00191322 0 0.00352245 0.00191322 0 -3.89947e-19 -0.00404214
0 -0.00350777 -0.00203871 0 0.00350777 -0.00203871 0 -0.00180405 -0.00383352 0
0.00180405 -0.00383352 0 -0.00350338 -0.00322101 0 0.00350338 -0.00322101 0 -0.005
8.60602e-05 0 0.005 8.60602e-05 0 -0.005 -0.00103629 0 0.005 -0.00103629
0 -0.005 0.00112923 0 0.005 0.00112923 0 -3.79112e-19 -0.00529135 0
-0.00180023 -0.00508853 0 0.00180023 -0.00508853 0 -0.005 0.00209882 0 0.005
0.00209882 0 -0.005 -0.00224382 0 0.005 -0.00224382 0 -0.00349866 -0.00449304
0 0.00349866 -0.00449304 0 -0.005 0.003 0 0.005 0.003 0
-0.005 -0.003543 0 0.005 -0.003543 0 -0.00637208 2.82617e-05 0 0.00639053
4.25732e-05 0 -0.00637208 0.00114892 0 -0.00637208 -0.00117745 0 0.00639053 -0.00116311
0 0.00639053 0.00116321 0 -3.67455e-19 -0.00663538 0 -0.00179612 -0.00643879 0
0.00179612 -0.00643879 0 -0.00637208 0.00219052 0 0.00639053 0.00220479 0 -0.00349357
-0.00586162 0 0.00349357 -0.00586162 0 -0.00637208 -0.00247467 0 0.00639053 -0.00246031
0 -0.005 -0.00494079 0 0.005 -0.00494079 0 -0.00637208 0.00315864 0
0.00639053 0.00317289 0 -0.00637208 -0.00387036 0 0.00639053 -0.00385597 0 -0.00637208
0.00405846 0 0.00639053 0.00407269 0 -0.00778421 -7.99569e-05 0 0.00781802 -5.3679e-05
0 -0.00778421 0.00112388 0 0.00781802 0.00115011 0 -0.00778421 -0.00137517 0
0.00781802 -0.00134884 0 -3.54912e-19 -0.00808142 0 -0.0017917 -0.00789154 0 0.0017917
-0.00789154 0 -0.00778421 0.0022428 0 -0.0034881 -0.00733407 0 0.0034881 -0.00733407
0 0.00781802 0.00226899 0 -0.005 -0.00644467 0 0.005 -0.00644467 0
-0.00778421 -0.00276868 0 0.00781802 -0.0027423 0 -0.00637208 -0.00537197 0 0.00639053
-0.00535755 0 -0.00778421 0.00328278 0 0.00781802 0.00330893 0 -0.00778421 0.00424939
0 -0.00778421 -0.00426796 0 0.00781802 -0.00424152 0 0.00781802 0.00427551 0
-0.00923755 -0.000243565 0 0.00928347 -0.000207818 0 -0.00923755 0.00104957 0 -0.00778421
0.00514782 0 0.00928347 0.00108525 0 0.00781802 0.0051739 0 -0.00923755 -0.00163485
0 0.00928347 -0.00159903 0 -0.00637208 -0.00698755 0 0.00639053 -0.0069731 0
-0.005 -0.0080627 0 0.005 -0.0080627 0 -0.00923755 0.00225148 0 0.00928347
0.0022871 0 -0.00348222 -0.00891827 0 0.00348222 -0.00891827 0 -0.00178695 -0.00945455
0 0.00178695 -0.00945455 0 -3.41418e-19 -0.00963721 0 -0.00923755 -0.00313172 0
-0.00778421 -0.00588103 0 0.00781802 -0.00585453 0 0.00928347 -0.00309583 0 -0.00923755
0.0033686 0 0.00928347 0.00340416 0 -0.00923755 0.00440692 0 0.00928347 0.00444243
0 -0.00923755 -0.00474221 0 0.00928347 -0.00470623 0 -0.00923755 0.00537198 0
-0.0107333 -0.000467921 0 0.00928347 0.00540745 0 -0.0107333 0.000921062 0 0.0107879
-0.000425364 0 0.00639053 -0.00871127 0 -0.00637208 -0.00872575 0 0.0107879 0.000963535
0 -0.00778421 -0.00761653 0 0.00781802 -0.00758997 0 -0.0107333 -0.00196233 0
0.0107879 -0.00191968 0 -0.0107333 0.00221206 0 -0.005 -0.00980352 0 0.005
-0.00980352 0 0.0107879 0.00225445 0 -0.00923755 0.00626897 0 -0.00347589 -0.0106227
0 0.00347589 -0.0106227 0 0.00928347 0.00630439 0 -0.0107333 0.00341198 0
-0.00178183 -0.0111362 0 0.00178183 -0.0111362 0 -0.00923755 -0.00647493 0 0.00928347
-0.00643887 0 -3.26899e-19 -0.0113111 0 -0.0107333 -0.00357015 0 0.0107879 0.00345431
0 0.0107879 -0.00352741 0 -0.0107333 0.00452726 0 0.0107879 0.00456952 0
-0.0107333 -0.00530001 0 0.0107879 -0.00525717 0 -0.0107333 0.00556386 0 0.0107879
0.00560606 0 -0.000743369 0.0122055 0 0.000743369 0.0122055 0 -0.00778421 -0.00948375
0 0.00781802 -0.00945713 0 -0.0122727 0.000733061 0 -0.0122727 -0.000758799 0
0.0123323 -0.000712262 0 0.0123323 0.0007795 0 0.00639053 -0.0105814 0 -0.00637208
-0.0105959 0 -0.00923755 -0.00833916 0 -0.0122727 0.00211968 0 0.00928347 -0.00830301
0 -0.0122727 -0.00236389 0 0.0123323 0.00216603 0 0.0123323 -0.00231725 0
-0.0107333 0.00652734 0 0.0107879 0.00656947 0 -0.005 -0.0116765 0 0.005
-0.0116765 0 -0.0122727 0.00340848 0 0.0123323 0.00345474 0 -0.000741126 0.0128136
0 0.000741126 0.0128136 0 -0.0107333 -0.00716117 0 0.0107879 -0.00711821 0
-0.00346908 -0.0124565 0 0.00346908 -0.0124565 0 -0.0122727 -0.00409081 0 0.0123323
-0.00404405 0 -0.0107333 0.00742284 0 -0.00177633 -0.0129455 0 0.00177633 -0.0129455
0 -0.0122727 0.00460636 0 -3.11279e-19 -0.013112 0 0.0107879 0.00746492 0
-0.002 0.013 0 0.002 0.013 0 0.0123323 0.00465255 0 -0.0007387
0.0134712 0 0.0007387 0.0134712 0 -0.0122727 0.00571974 0 0.0123323 0.00576585
0 -0.0122727 -0.00594879 0 0.0123323 -0.00590191 0 -0.002 0.0135849 0
0.002 0.0135849 0 -0.0138571 0.000479853 0 -0.00923755 -0.0103449 0 0.00928347
-0.0103086 0 0.00781802 -0.011466 0 -0.00778421 -0.0114927 0 -0.0138571 -0.00112242
0 0.0139177 0.000527252 0 0.0139177 -0.00107491 0 -0.0138571 0.0019691 0
-0.0122727 0.00675458 0 0.0139177 0.00201639 0 0.0123323 0.00680062 0 -0.0107333
-0.00916358 0 0.00639053 -0.0125934 0 0.0107879 -0.0091205 0 -0.00637208 -0.012608
0 -0.0138571 -0.0028463 0 0.0139177 -0.00279868 0 -0.000736077 0.0141824 0
0.000736077 0.0141824 0 -0.00319452 0.0138829 0 0.00320133 0.0138879 0 -0.0138571
0.00335328 0 0.0139177 0.00340049 0 -0.002 0.0142174 0 0.002 0.0142174
0 -0.0122727 0.00771641 0 0.0123323 0.00776239 0 -0.005 -0.0136916 0
0.005 -0.0136916 0 -0.0138571 0.00463982 0 -0.0122727 -0.0079478 0 -0.0138571
-0.00470103 0 0.0123323 -0.00790078 0 0.0139177 -0.00465328 0 0.0139177 0.00468694
0 -0.00319452 0.0144678 0 0.00320133 0.0144728 0 -0.00346175 -0.0144295 0
0.00346175 -0.0144295 0 -0.00073324 0.0149515 0 0.00073324 0.0149515 0 -0.0122727
0.00861039 0 -0.00177041 -0.0148921 0 0.00177041 -0.0148921 0 -0.002 0.0149014
0 0.002 0.0149014 0 -0.0138571 0.0058356 0 -2.94473e-19 -0.0150496 0
0.0123323 0.00865631 0 0.0139177 0.00588264 0 -0.0138571 -0.00669653 0 0.0139177
-0.00664864 0 -0.00319452 0.0151003 0 0.00320133 0.0151053 0 -0.0154877 0.000155282
0 -0.0138571 0.00694702 0 -0.00451419 0.0148583 0 0.0045263 0.0148673 0
0.00928347 -0.0124665 0 -0.00923755 -0.0125028 0 0.0155453 0.000200444 0 -0.0154877
-0.00156548 0 0.0139177 0.00699399 0 -0.0154877 0.00175466 0 -0.0107333 -0.011318
0 0.0107879 -0.0112748 0 0.0155453 -0.00152021 0 0.0155453 0.00179972 0
0.00781802 -0.0136273 0 -0.00778421 -0.0136541 0 -0.002 0.0156411 0 0.002
0.0156411 0 -0.000730172 0.0157833 0 0.000730172 0.0157833 0 -0.0154877 0.0032412
0 -0.0154877 -0.00341685 0 0.0155453 0.00328617 0 -0.0122727 -0.0100985 0
0.0155453 -0.00337146 0 0.0123323 -0.0100514 0 -0.0138571 0.00798004 0 0.0139177
0.00802694 0 0.00639053 -0.0147581 0 -0.00637208 -0.0147727 0 -0.00451419 0.0154432
0 0.0045263 0.0154521 0 -0.00319452 0.0157843 0 0.00320133 0.0157893 0
-0.0154877 0.00462288 0 0.0155453 0.00466776 0 -0.0154877 -0.00540874 0 -0.0138571
-0.00884348 0 0.0155453 -0.00536322 0 0.0139177 -0.00879545 0 -0.0138571 0.00894019
0 -0.002 0.0164411 0 0.002 0.0164411 0 0.0139177 0.00898702 0
-0.0154877 0.00590709 0 -0.005 -0.0158596 0 0.005 -0.0158596 0 0.0155453
0.00595189 0 -0.00451419 0.0160757 0 -0.000726854 0.0166828 0 0.000726854 0.0166828
0 0.0045263 0.0160846 0 -0.00319452 0.016524 0 0.00320133 0.016529 0
-0.00345386 -0.0165523 0 0.00345386 -0.0165523 0 -0.0138571 0.0098326 0 -0.00597213
0.0159359 0 0.00598764 0.0159474 0 -0.0154877 0.00710071 0 0.0139177 0.00987937
0 -0.00176404 -0.0169864 0 0.00176404 -0.0169864 0 0.0155453 0.00714543 0
-2.76391e-19 -0.0171343 0 -0.0171658 -0.000247278 0 0.0172162 -0.000207752 0 -0.0171658
0.00147028 0 -0.0154877 -0.0075518 0 0.0155453 -0.00750615 0 0.0172162 0.00150971
0 -0.0171658 -0.00209519 0 0.0172162 -0.00205556 0 0.0107879 -0.0135925 0
-0.0107333 -0.0136359 0 -0.00451419 0.0167597 0 0.0045263 0.0167686 0 -0.002
0.0173062 0 0.002 0.0173062 0 -0.0171658 0.00306667 0 -0.0122727 -0.0124125
0 0.00928347 -0.0147881 0 0.0123323 -0.0123652 0 -0.00923755 -0.0148246 0
0.0172162 0.00310601 0 -0.0154877 0.00821012 0 -0.00597213 0.0165208 0 0.00598764
0.0165323 0 0.0155453 0.00825477 0 -0.00319452 0.017324 0 0.00320133 0.017329
0 -0.0171658 -0.00408336 0 -0.000723266 0.0176555 0 0.000723266 0.0176555 0
0.0172162 -0.00404362 0 -0.0171658 0.00455044 0 0.00781802 -0.0159527 0 -0.00778421
-0.0159796 0 -0.0138571 -0.0111534 0 0.0139177 -0.0111052 0 0.0172162 0.0045897
0 -0.0154877 0.00924127 0 -0.00451419 0.0174994 0 0.0045263 0.0175084 0
0.0155453 0.00928585 0 -0.0171658 0.00592954 0 -0.00597213 0.0171533 0 0.00598764
0.0171648 0 0.0172162 0.00596872 0 0.00639053 -0.0170872 0 -0.00637208 -0.0171018
0 -0.0171658 -0.00622243 0 0.0172162 -0.00618257 0 -0.002 0.0182418 0
0.002 0.0182418 0 -0.0154877 -0.00985753 0 0.0155453 -0.00981172 0 -0.00319452
0.0181891 0 0.00320133 0.0181941 0 -0.0154877 0.0101997 0 0.0155453 0.0102442
0 -0.0171658 0.00721136 0 0.0172162 0.00725047 0 -0.000719385 0.0187075 0
0.000719385 0.0187075 0 -0.00758282 0.0171264 0 0.00759938 0.0171387 0 -0.00597213
0.0178373 0 0.00598764 0.0178488 0 -0.00451419 0.0182994 0 0.0045263 0.0183083
0 -0.005 -0.0181922 0 0.005 -0.0181922 0 -0.018893 -0.00073496 0
-0.018893 0.0011094 0 0.0189314 -0.000704684 0 0.0189314 0.0011396 0 -0.0154877
0.0110905 0 -0.018893 -0.0027193 0 -0.018893 0.00282365 0 -0.0171658 0.00840275
0 0.0189314 -0.00268894 0 0.0155453 0.0111349 0 0.0189314 0.00285377 0
-0.00344538 -0.0188361 0 0.00344538 -0.0188361 0 -0.0171658 -0.00852385 0 0.0172162
0.00844179 0 0.0172162 -0.00848386 0 -0.00758282 0.0177113 0 0.00759938 0.0177235
0 -0.0122727 -0.0149021 0 0.0123323 -0.0148546 0 -0.00175719 -0.0192397 0
[...]
CELL_DATA 15677
FIELD attributes 1
U 3 15677 float
-0.304871 10.2652 0 0.190476 10.9192 0 -0.101143 9.44666 0 0.0315571 10.9901
0 0.118846 10.7323 0 -0.0119267 8.75833 0 0.0455285 11.0075 0
0.0144863 10.9815 0 0.0577145 10.4719 0 0.0115311 8.22929 0 0.0466959
11.0122 0 0.0433932 11.0311 0 0.0260954 10.9286 0 0.0319093 10.1907
0 0.0113241 7.85605 0 0.0440132 11.0135 0 0.04241 11.0439 0
0.0428117 11.0209 0 0.033241 10.8603 0 0.021373 9.90285 0 0.00644236
7.61185 0 0.0413784 11.0136 0 0.0404521 11.0462 0 0.0402147 11.0448
0 0.0398996 11.0049 0 0.0328278 10.7691 0 0.0159547 9.6375 0
0.00250623 7.45864 0 0.038638 11.0131 0 0.0389962 11.0453 0 0.039392
11.0533 0 0.0385112 11.0445 0 0.0358578 10.9826 0 0.0288635 10.657
0 0.0121652 9.41234 0 0.000564147 7.36211 0 0.035613 11.0123 0
0.0373822 11.0435 0 0.0387255 11.056 0 0.0384614 11.0587 0 0.0360629
11.0421 0 0.0318507 10.9527 0 0.0240854 10.5325 0 0.00902465 9.23733
0 1.75734e-05 7.29996 0 0.0323317 11.0113 0 0.0354739 11.0411 0
0.0376388 11.0557 0 0.0379037 11.064 0 0.0361345 11.0633 0 0.03293
11.0363 0 0.0284305 10.9173 0 0.0194953 10.398 0 0.00646336 9.10655
0 -0.000236183 7.25736 0 0.0288563 11.0101 0 0.0333449 11.0382 0
0.0362441 11.054 0 0.0369613 11.0652 0 0.035579 11.0717 0 0.0329809
11.0662 0 0.0298352 11.0288 0 0.0254257 10.8758 0 0.0154697 10.2692
0 0.0044094 9.01167 0 -0.000466736 7.23285 0 0.0252647 11.0089 0
0.031018 11.0348 0 0.0345903 11.0513 0 0.0357468 11.0643 0 0.0346737
11.0745 0 0.032432 11.0784 0 0.0297954 11.0686 0 0.0268483 11.0211
0 0.0222202 10.8304 0 0.0118488 10.1592 0 0.00266906 8.94573 0
-0.000670696 7.22129 0 0.0215495 11.0077 0 0.0284983 11.0312 0 0.0326699
11.0481 0 0.0342677 11.0622 0 0.0334799 11.0746 0 0.0314913 11.0832
0 0.0291393 11.0852 0 0.02665 11.0723 0 0.0235617 11.0142 0
0.0185254 10.7844 0 0.00845456 10.0703 0 0.00110338 8.90366 0 -0.00108634
7.22327 0 0.0178444 11.0065 0 0.0258944 11.0273 0 0.0304685 11.0442
0 0.0325081 11.0592 0 0.0320019 11.073 0 0.0302131 11.0843 0
0.0280117 11.0923 0 0.0257333 11.0937 0 0.0231656 11.0783 0 0.019876
11.0088 0 0.0144055 10.7408 0 0.00514643 10.0051 0 -0.000538729 8.88266
0 -0.00170676 7.23854 0 0.0146478 11.0053 0 0.0232124 11.0233 0
0.0280143 11.0398 0 0.0304504 11.0553 0 0.0302306 11.0702 0 0.0286135
11.0834 0 0.0264835 11.0947 0 0.0242468 11.1031 0 0.0218425 11.1048
0 0.0191442 11.0872 0 0.0156864 11.006 0 0.00993035 10.7049 0
0.00167358 9.96256 0 -0.00220972 8.88074 0 -0.00237372 7.26747 0 0.0120685
11.0043 0 0.0206717 11.0196 0 0.0253412 11.0351 0 0.0280812 11.0508
0 0.0281501 11.0665 0 0.0266878 11.081 0 0.02458 11.0944 0
0.0222825 11.1069 0 0.019839 11.1168 0 0.017245 11.1194 0 0.0144012
11.1002 0 0.0107891 11.0075 0 0.00504327 10.6798 0 -0.00190759 9.94182
0 -0.00409928 8.89714 0 -0.0032 7.31018 0 0.00991362 11.0034 0
0.0184094 11.0164 0 0.0227458 11.0306 0 0.0254058 11.0456 0 0.0257405
11.0619 0 0.0244191 11.0775 0 0.0222989 11.0925 0 0.0198694 11.1073
0 0.0172628 11.1218 0 0.0145484 11.134 0 0.0117519 11.1384 0
0.00875142 11.1181 0 0.0050916 11.0151 0 -0.000318842 10.668 0 -0.00577207
9.94183 0 -0.00618808 8.93085 0 -0.00411685 7.36688 0 0.00824895 11.0027
0 0.0163946 11.0136 0 0.0204006 11.0266 0 0.0227336 11.0406 0
0.0229911 11.0565 0 0.0217865 11.073 0 0.0196244 11.0892 0 0.0170053
11.1058 0 0.0141411 11.123 0 0.0111599 11.1404 0 0.00816072 11.1556
0 0.0051612 11.1625 0 0.00208277 11.1419 0 -0.00144131 11.0305 0
-0.00618492 10.6708 0 -0.00996063 9.96165 0 -0.00848798 8.98179 0 -0.00511452
7.43736 0 0.00686486 11.0021 0 0.0144895 11.0112 0 0.0182409 11.0231
0 0.0202657 11.0361 0 0.0202047 11.0511 0 0.0187751 11.0674 0
0.0165368 11.0847 0 0.0136756 11.1026 0 0.010469 11.1217 0 0.00710315
11.1422 0 0.0037285 11.1633 0 0.000446449 11.1825 0 -0.00268349 11.1927
0 -0.00568719 11.1727 0 -0.00883101 11.0553 0 -0.0125929 10.6894 0
-0.0145064 10.0003 0 -0.0109836 9.04919 0 -0.00618024 7.52141 0 0.00572945
11.0017 0 0.0128078 11.0093 0 0.0162283 11.02 0 0.0179426 11.0321
0 0.0176024 11.046 0 0.0157115 11.0616 0 0.0130229 11.079 0
0.00986423 11.098 0 0.0062313 11.1186 0 0.00236852 11.1412 0 -0.00152398
11.1657 0 -0.00528942 11.1914 0 -0.00878522 11.2154 0 -0.0119019 11.2299
0 -0.0146141 11.2116 0 -0.0171061 11.0907 0 -0.0195577 10.7241 0
-0.0194061 10.0573 0 -0.013668 9.13258 0 -0.00729555 7.61837 0 0.00479732
11.0014 0 0.011288 11.0078 0 0.0143753 11.0174 0 0.0157691 11.0284
0 0.0151355 11.0414 0 0.012846 11.0561 0 0.00946201 11.0728 0
0.00556381 11.0921 0 0.0014146 11.1138 0 -0.00306268 11.1379 0 -0.00761433
11.1648 0 -0.0120311 11.1943 0 -0.0161163 11.2255 0 -0.0196788 11.2552
0 -0.0225735 11.2749 0 -0.0247395 11.2596 0 -0.0262679 11.1378 0
-0.0270649 10.7752 0 -0.0246406 10.1315 0 -0.0165175 9.23116 0 -0.0084613
7.72758 0 0.00405772 11.0011 0 0.00992354 11.0065 0 0.012689 11.0152
0 0.0137491 11.0252 0 0.0128229 11.0371 0 0.0101336 11.0509 0
0.0061442 11.0668 0 0.0012402 11.0854 0 -0.00397948 11.1074 0 -0.00920249
11.1328 0 -0.0145677 11.1613 0 -0.0198083 11.1934 0 -0.0246767 11.2288
0 -0.0289289 11.2664 0 -0.0323421 11.3026 0 -0.034754 11.3284 0
-0.0360662 11.3174 0 -0.0362867 11.1972 0 -0.0350885 10.8425 0 -0.0301897
10.2222 0 -0.0195169 9.34422 0 -0.00965693 7.8483 0 0.00349049 11.001
0 0.00875914 11.0056 0 0.0111534 11.0133 0 0.0118921 11.0224 0
0.0106758 11.0332 0 0.00760132 11.046 0 0.00302032 11.0609 0 -0.0027607
11.0787 0 -0.00936198 11.1 0 -0.016039 11.1256 0 -0.0223963 11.1556
0 -0.0286562 11.1895 0 -0.0345134 11.2277 0 -0.039674 11.2699 0
-0.0438637 11.3147 0 -0.046849 11.3584 0 -0.0484547 11.3911 0 -0.0485593
11.3855 0 -0.0471024 11.2693 0 -0.0435864 10.9255 0 -0.0360141 10.3285
0 -0.0226248 9.47066 0 -0.010852 7.97933 0 0.00305081 11.0008 0
0.00780636 11.0048 0 0.00981298 11.0117 0 0.0101952 11.0199 0 0.00870409
11.0297 0 0.0052678 11.0414 0 0.000125272 11.0552 0 -0.00649974 11.072
0 -0.0143093 11.0924 0 -0.0228202 11.1173 0 -0.0310776 11.1475 0
-0.0385897 11.183 0 -0.0456755 11.2233 0 -0.0519841 11.2686 0 -0.0571912
11.3185 0 -0.0610149 11.3713 0 -0.0632205 11.4231 0 -0.0636396 11.4635
0 -0.0621477 11.4644 0 -0.0586348 11.3542 0 -0.052494 11.0233 0
-0.042042 10.4489 0 -0.025792 9.60922 0 -0.0120328 8.11941 0 0.0027038
11.0007 0 0.0070229 11.0043 0 0.00869871 11.0104 0 0.0087207 11.0177
0 0.00691232 11.0265 0 0.00314675 11.0371 0 -0.00251439 11.0498 0
-0.00993365 11.0654 0 -0.0188995 11.0847 0 -0.0290189 11.1086 0 -0.0396514
11.1379 0 -0.049575 11.1738 0 -0.058184 11.2158 0 -0.0659278 11.2635
0 -0.0724254 11.3167 0 -0.077347 11.3751 0 -0.0804175 11.4366 0
-0.0814252 11.4972 0 -0.0802278 11.5458 0 -0.0767189 11.5541 0 -0.0707646
11.4515 0 -0.0617031 11.1351 0 -0.0482156 10.5823 0 -0.0289807 9.75855
0 -0.0131884 8.26723 0 0.00242561 11.0006 0 0.00637616 11.0038 0
0.00777849 11.0094 0 0.00750516 11.016 0 0.00537154 11.0238 0 0.00124729
11.0332 0 -0.00487906 11.0447 0 -0.0130276 11.0589 0 -0.0230792 11.0768
0 -0.0347361 11.0995 0 -0.0474571 11.1277 0 -0.0603939 11.1626 0
-0.0719944 11.2051 0 -0.0815361 11.2547 0 -0.0896611 11.3107 0 -0.0959857
11.3728 0 -0.100193 11.4403 0 -0.102043 11.5112 0 -0.101372 11.5809
0 -0.0980902 11.6383 0 -0.092142 11.6546 0 -0.0833693 11.5608 0
-0.0711074 11.2597 0 -0.0544624 10.7273 0 -0.0321553 9.9172 0 -0.0142981
8.42138 0 0.00219956 11.0006 0 0.00583806 11.0035 0 0.00701255 11.0086
0 0.00650846 11.0145 0 0.00411864 11.0215 0 -0.000353667 11.0297 0
-0.00695472 11.0398 0 -0.0157548 11.0527 0 -0.0268036 11.0691 0 -0.0399059
11.0901 0 -0.0546253 11.1169 0 -0.0702179 11.1505 0 -0.0855747 11.1919
0 -0.0987566 11.2421 0 -0.108946 11.3005 0 -0.117059 11.3656 0
-0.122736 11.4372 0 -0.125705 11.5145 0 -0.125794 11.5951 0 -0.122919
11.6743 0 -0.117067 11.7406 0 -0.108237 11.7653 0 -0.0963088 11.6813
0 -0.0806192 11.3956 0 -0.0607029 10.8823 0 -0.035277 10.0836 0
-0.0153506 8.58042 0 0.00201369 11.0005 0 0.00538746 11.0032 0 0.00637127
11.008 0 0.00568741 11.0133 0 0.00310771 11.0195 0 -0.0016236 11.0267
0 -0.00865656 11.0354 0 -0.0180957 11.0467 0 -0.0300373 11.0615 0
-0.044471 11.0807 0 -0.0610741 11.1057 0 -0.079215 11.1376 0 -0.0978898
11.1777 0 -0.115681 11.2266 0 -0.13022 11.2857 0 -0.140638 11.3536
0 -0.14822 11.4288 0 -0.152666 11.5107 0 -0.153789 11.5981 0
-0.151517 11.6886 0 -0.145872 11.7773 0 -0.136946 11.8526 0 -0.12482
11.8859 0 -0.10942 11.812 0 -0.0901251 11.5416 0 -0.0668628 11.0457
0 -0.0383131 10.2563 0 -0.016348 8.74293 0 0.00185931 11.0004 0
0.00500778 11.0029 0 0.00583123 11.0074 0 0.00500838 11.0123 0 0.00229093
11.0179 0 -0.00261849 11.0242 0 -0.0099593 11.0317 0 -0.0199547 11.0412
0 -0.0327532 11.054 0 -0.0483847 11.0714 0 -0.0667306 11.0943 0
-0.0872827 11.1241 0 -0.109153 11.1622 0 -0.131024 11.2097 0 -0.151135
11.2674 0 -0.166666 11.3364 0 -0.176752 11.4149 0 -0.183152 11.5008
0 -0.185674 11.5933 0 -0.184258 11.6911 0 -0.178977 11.7916 0
-0.169988 11.8897 0 -0.157494 11.9737 0 -0.141691 12.0155 0 -0.12255
11.9516 0 -0.0995141 11.696 0 -0.0728798 11.216 0 -0.0412432 10.4335
0 -0.0172057 8.90782 0 0.00172994 11.0004 0 0.00468599 11.0027 0
0.00537384 11.007 0 0.00444452 11.0115 0 0.00162983 11.0165 0 -0.00339492
11.022 0 -0.0109352 11.0284 0 -0.0213169 11.0364 0 -0.0348408 11.0471
0 -0.0516106 11.0621 0 -0.0715338 11.0827 0 -0.0943282 11.1101 0
-0.119237 11.1458 0 -0.145055 11.1912 0 -0.17011 11.2474 0 -0.192286
11.315 0 -0.20828 11.3949 0 -0.217306 11.4847 0 -0.221739 11.5818
0 -0.221551 11.6853 0 -0.216857 11.7935 0 -0.207898 11.9038 0
-0.194991 12.0109 0 -0.178472 12.1032 0 -0.158646 12.1531 0 -0.135556
12.0991 0 -0.108687 11.8574 0 -0.0787109 11.3914 0 -0.0439988 10.6141
0 -0.0185183 9.07231 0 0.00162068 11.0004 0 0.00441173 11.0026 0
0.00498415 11.0066 0 0.00397438 11.0108 0 0.00109359 11.0153 0 -0.00399853
11.0202 0 -0.0116549 11.0256 0 -0.0222781 11.0322 0 -0.0362992 11.041
0 -0.0540172 11.0533 0 -0.0754345 11.0711 0 -0.100272 11.0958 0
-0.128024 11.1287 0 -0.157615 11.1715 0 -0.187478 11.2253 0 -0.215561
11.2913 0 -0.239359 11.3699 0 -0.255103 11.4616 0 -0.262196 11.5634
0 -0.263772 11.6721 0 -0.260023 11.7866 0 -0.251275 11.9051 0
-0.237968 12.0248 0 -0.220591 12.1403 0 -0.199626 12.2403 0 -0.175491
12.2977 0 -0.148297 12.253 0 -0.117571 12.0241 0 -0.0842849 11.5706
0 -0.0472118 10.7959 0 -0.0197463 9.2661 0 0.00152776 11.0003 0
0.00417679 11.0024 0 0.00465172 11.0062 0 0.00358069 11.0102 0 0.000657569
11.0143 0 -0.00446583 11.0186 0 -0.0121755 11.0232 0 -0.0229293 11.0285
0 -0.0372554 11.0356 0 -0.0556201 11.0455 0 -0.0782731 11.06 0
-0.105049 11.0813 0 -0.135411 11.1111 0 -0.168556 11.1507 0 -0.203044
11.2016 0 -0.236903 11.2652 0 -0.267655 11.3422 0 -0.292449 11.4327
0 -0.307059 11.537 0 -0.311212 11.6513 0 -0.308951 11.7718 0
-0.300738 11.8971 0 -0.287144 12.0254 0 -0.268834 12.1539 0 -0.246483
12.2772 0 -0.220708 12.3841 0 -0.192038 12.4482 0 -0.160663 12.412
0 -0.126075 12.1949 0 -0.0899859 11.7517 0 -0.0500403 10.999 0
-0.0200696 9.46525 0 0.00144816 11.0003 0 0.00397467 11.0023 0 0.00436605
11.006 0 0.00324951 11.0096 0 0.000302106 11.0134 0 -0.0048259 11.0172
0 -0.0125423 11.021 0 -0.0233433 11.0254 0 -0.0378276 11.0309 0
-0.0565872 11.0386 0 -0.0800843 11.0501 0 -0.108462 11.0675 0 -0.141311
11.0932 0 -0.177746 11.1292 0 -0.216621 11.1765 0 -0.256073 11.2369
0 -0.293674 11.3114 0 -0.326543 11.4005 0 -0.35151 11.5039 0
-0.363938 11.6214 0 -0.364022 11.7485 0 -0.356868 11.8806 0 -0.343263
12.0164 0 -0.32405 12.1539 0 -0.300131 12.2904 0 -0.272359 12.4205
0 -0.24148 12.5334 0 -0.20813 12.6033 0 -0.172531 12.5748 0
-0.134402 12.3677 0 -0.095405 11.9541 0 -0.0518845 11.2218 0 -0.0204722
9.65999 0 0.00137946 11.0003 0 0.0038002 11.0022 0 0.00411894 11.0057
0 0.00297067 11.0092 0 1.14581e-05 11.0127 0 -0.00510183 11.016 0
-0.0127912 11.0192 0 -0.0235783 11.0226 0 -0.0381107 11.0267 0 -0.0570723
11.0325 0 -0.0810872 11.0413 0 -0.110566 11.055 0 -0.145477 11.0759
0 -0.185069 11.1071 0 -0.228041 11.1504 0 -0.272839 11.2069 0
-0.317118 11.278 0 -0.357999 11.3646 0 -0.392224 11.4668 0 -0.416345
11.5838 0 -0.425384 11.715 0 -0.420172 11.8548 0 -0.407039 11.9983
0 -0.387123 12.1439 0 -0.361563 12.2899 0 -0.331491 12.4334 0
-0.297927 12.5694 0 -0.261736 12.6871 0 -0.223609 12.762 0 -0.183969
12.7397 0 -0.14275 12.5615 0 -0.100224 12.1769 0 -0.053904 11.4408
0 -0.0209034 9.84822 0 0.0013203 11.0003 0 0.00364884 11.0021 0
0.00390544 11.0055 0 0.00273477 11.0088 0 -0.000226838 11.012 0 -0.00531194
11.015 0 -0.0129506 11.0176 0 -0.0236799 11.0202 0 -0.0381795 11.0231
0 -0.0571984 11.0272 0 -0.0814809 11.0335 0 -0.111643 11.0438 0
-0.147985 11.0602 0 -0.190214 11.0857 0 -0.237153 11.1234 0 -0.286989
11.1753 0 -0.337704 11.2422 0 -0.386463 11.3254 0 -0.429938 11.4254
0 -0.464526 11.5416 0 -0.486593 11.6727 0 -0.490908 11.8177 0
-0.47912 11.9701 0 -0.458914 12.1243 0 -0.431813 12.279 0 -0.399243
12.4325 0 -0.362556 12.582 0 -0.322922 12.7226 0 -0.281272 12.8443
0 -0.23843 12.9226 0 -0.19568 12.9247 0 -0.150672 12.7752 0
-0.104834 12.3966 0 -0.0558461 11.6534 0 -0.0212627 10.0286 0 0.00351647
11.0021 0 0.0012487 11.0003 0 0.00371954 11.0053 0 0.00253391 11.0084
0 -0.000422683 11.0114 0 -0.00547067 11.0141 0 -0.0130427 11.0162 0
-0.0236838 11.018 0 -0.0380928 11.0199 0 -0.057063 11.0225 0 -0.0814246
11.0266 0 -0.111949 11.0339 0 -0.149195 11.0461 0 -0.193276 11.0661
0 -0.24356 11.0971 0 -0.298328 11.1426 0 -0.355167 11.2046 0
-0.411584 11.2834 0 -0.464231 11.3799 0 -0.50936 11.4942 0 -0.543101
11.6252 0 -0.561741 11.7708 0 -0.559909 11.9294 0 -0.540241 12.0939
0 -0.511908 12.2581 0 -0.476814 12.4209 0 -0.436662 12.5808 0
-0.392996 12.735 0 -0.347089 12.8793 0 -0.299955 13.0033 0 -0.25381
13.1029 0 -0.207136 13.129 0 -0.157889 12.9863 0 -0.109011 12.6107
0 -0.0575077 11.8579 0 -0.0215314 10.2006 0 0.00355474 11.0052 0
0.0033608 11.002 0 0.00116198 11.0002 0 0.00236135 11.0081 0 -0.00058403
11.0109 0 -0.00558916 11.0133 0 -0.0130848 11.015 0 -0.0236176 11.0162
0 -0.0378963 11.0171 0 -0.0567419 11.0183 0 -0.0810442 11.0205 0
-0.111688 11.0251 0 -0.14943 11.0336 0 -0.194704 11.0485 0 -0.247372
11.0729 0 -0.306349 11.1106 0 -0.369256 11.1653 0 -0.433034 11.2388
0 -0.49468 11.3308 0 -0.550352 11.4419 0 -0.595948 11.5715 0
-0.627432 11.7177 0 -0.641146 11.8779 0 -0.631686 12.0499 0 -0.602859
12.2257 0 -0.565412 12.399 0 -0.521614 12.5687 0 -0.473415 12.7336
0 -0.422498 12.8916 0 -0.370224 13.038 0 -0.319494 13.1819 0
-0.269136 13.302 0 -0.217458 13.3309 0 -0.164349 13.1925 0 -0.112594
12.8175 0 -0.0588781 12.0536 0 -0.021702 10.3638 0 0.00220786 11.0079
0 0.00337342 11.0049 0 0.00316375 11.0019 0 0.00107889 11.0002 4.29352e-19
-0.000718698 11.0105 0 -0.00567595 11.0126 0 -0.0130899 11.0139 0 -0.0235027
11.0145 0 -0.0376252 11.0147 0 -0.0562939 11.0147 0 -0.0804377 11.0152
0 -0.111021 11.0173 0 -0.148949 11.0224 0 -0.194905 11.0328 0
-0.249143 11.0512 0 -0.311166 11.0811 0 -0.379324 11.1267 0 -0.450492
11.1921 0 -0.520879 11.2786 0 -0.586997 11.3853 0 -0.64456 11.5121
0 -0.689201 11.6576 0 -0.71685 11.8194 0 -0.724042 11.9939 0
-0.705472 12.1786 0 -0.666269 12.3648 0 -0.618819 12.5459 0 -0.565725
12.7214 0 -0.509122 12.8902 0 -0.450794 13.0503 0 -0.394536 13.2162
0 -0.339214 13.3793 0 -0.28291 13.4989 0 -0.226685 13.5284 0
-0.169941 13.3919 0 -0.115606 13.0159 0 -0.0599755 12.2399 0 -0.0217781
10.5178 0 -0.000841305 11.0101 0 0.00205706 11.0075 0 0.00315863 11.0047
1.8797e-18 0.00297276 11.0017 -1.35938e-18 0.000998962 11.0002 -8.71364e-19 -0.00573935 11.0119 0
-0.0130676 11.0129 0 -0.023355 11.0131 0 -0.0373063 11.0125 0 -0.0557641
11.0114 0 -0.0796809 11.0104 0 -0.110076 11.0104 0 -0.14796 11.0125
0 -0.194204 11.0188 0 -0.249376 11.0316 0 -0.313452 11.0543 0
-0.385474 11.0909 0 -0.463136 11.1459 0 -0.542428 11.2237 0 -0.618803
11.3247 0 -0.68834 11.4473 0 -0.746389 11.5907 0 -0.788444 11.7527
0 -0.810545 11.93 0 -0.809579 12.1185 0 -0.780455 12.315 0
-0.729759 12.5104 0 -0.67155 12.698 0 -0.60869 12.8779 0 -0.54345
13.0491 0 -0.480637 13.2287 0 -0.419288 13.4133 0 -0.356979 13.5745
0 -0.295209 13.6917 0 -0.234729 13.7198 0 -0.174689 13.5837 0
-0.118091 13.2054 0 -0.0608259 12.4165 0 -0.0217721 10.6627 0 -0.00580134
11.0114 0 -0.000923389 11.0096 -3.80522e-18 0.00188988 11.0071 -1.97918e-18 0.00294967 11.0044
9.54241e-19 0.0027851 11.0016 -9.19259e-19 0.000922258 11.0002 0 -0.0130265 11.0121 0
-0.0231852 11.0118 0 -0.0369594 11.0106 0 -0.0551868 11.0086 0 -0.0788316
11.0062 0 -0.108948 11.0042 0 -0.146621 11.0037 0 -0.192863 11.0063
0 -0.248477 11.0141 0 -0.313824 11.0303 0 -0.388512 11.0585 0
-0.471035 11.1031 0 -0.558282 11.1691 0 -0.64527 11.2607 0 -0.726701
11.3778 0 -0.798305 11.5176 0 -0.855183 11.6783 0 -0.892838 11.857
0 -0.907592 12.0496 0 -0.896835 12.2511 0 -0.855802 12.4584 0
-0.792639 12.6616 0 -0.723058 12.8544 0 -0.650101 13.037 0 -0.579769
13.228 0 -0.511215 13.4262 0 -0.441663 13.6083 0 -0.372855 13.7657
0 -0.305977 13.8787 0 -0.241608 13.904 0 -0.178654 13.7671 0
-0.120095 13.3855 0 -0.0614596 12.5831 0 -0.0216985 10.7983 0 -0.0129991
11.0114 0 -0.00576818 11.0108 8.00877e-18 -0.000971697 11.009 0 0.00172954 11.0067
2.008e-18 0.00274773 11.0042 5.83281e-22 0.0026013 11.0015 0 0.000848766 11.0002 0
-0.0230025 11.0107 0 -0.036597 11.0089 0 -0.0545867 11.0061 0 -0.0779337
11.0025 0 -0.107712 10.9989 0 -0.145058 10.9959 0 -0.191083 10.9952
0 -0.246771 10.9986 0 -0.312781 11.0088 0 -0.389183 11.0292 0
-0.475139 11.0641 0 -0.568446 11.1182 0 -0.665086 11.1968 0 -0.759028
11.304 0 -0.844253 11.4386 0 -0.916281 11.5964 0 -0.970108 11.775
0 -1.00142 11.9703 0 -1.00699 12.1776 0 -0.984857 12.3913 0
-0.930688 12.6079 0 -0.854251 12.8174 0 -0.772848 13.0137 0 -0.694061
13.2165 0 -0.617164 13.4262 0 -0.538962 13.6218 0 -0.461687 13.7995
0 -0.386813 13.9513 0 -0.315235 14.0589 0 -0.247402 14.0804 0
-0.181899 13.9417 0 -0.12167 13.5559 0 -0.0619068 12.7398 0 -0.0215698
10.9251 0 -0.0228543 11.0097 0 -0.0127998 11.0105 5.11759e-22 -0.00561641 11.01
0 -0.00101785 11.0085 -2.11313e-18 0.00157809 11.0063 4.16226e-22 0.00255301 11.004 0
0.00242143 11.0014 0 0.00077848 11.0001 0 -0.0362287 11.0074 0 -0.0539789
11.0039 0 -0.0770187 10.9993 0 -0.106425 10.9941 0 -0.143364 10.989
0 -0.189021 10.9854 0 -0.244512 10.9847 0 -0.310723 10.9895 0
-0.388094 11.0029 0 -0.476337 11.0287 0 -0.574023 11.0717 0 -0.678146
11.137 0 -0.783679 11.2299 0 -0.883489 11.3543 0 -0.970923 11.5076
0 -1.04146 11.6844 0 -1.09018 11.881 0 -1.11313 12.0926 0
-1.10769 12.3136 0 -1.0727 12.5382 0 -1.00433 12.7626 0 -0.913984
12.9767 0 -0.825867 13.1938 0 -0.739502 13.4157 0 -0.65123 13.6228
0 -0.563853 13.8137 0 -0.479347 13.9852 0 -0.398887 14.1304 0
-0.323082 14.2316 0 -0.2522 14.2485 0 -0.184498 14.1071 0 -0.122867
13.7166 0 -0.0621938 12.8868 0 -0.0213973 11.0431 0 -0.0359226 11.0061
0 -0.0224278 11.0086 -4.42911e-18 -0.0123536 11.0095 0 -0.00546929 11.0092 0
-0.00105076 11.0079 6.42806e-18 0.00143543 11.0059 0 0.00236532 11.0037 0 0.00224563
11.0013 1.91552e-18 0.000711399 11.0001 0 -0.0533734 11.0019 0 -0.0761046 10.9964
0 -0.105125 10.9899 0 -0.141613 10.9829 0 -0.186798 10.9766 0
-0.241897 10.9724 0 -0.307967 10.9724 0 -0.385735 10.9793 0 -0.475359
10.9969 0 -0.576059 11.0295 0 -0.685708 11.0821 0 -0.800389 11.1603
0 -0.913979 11.2693 0 -1.01822 11.4124 0 -1.10596 11.5855 0
-1.17287 11.7817 0 -1.21428 11.9962 0 -1.22682 12.2234 0 -1.20864
12.457 0 -1.15947 12.691 0 -1.07598 12.9214 0 -0.977795 13.1572
0 -0.880857 13.3942 0 -0.781036 13.6137 0 -0.681866 13.8159 0
-0.585879 14.0003 0 -0.494696 14.1646 0 -0.40919 14.3022 0 -0.329634
14.3964 0 -0.256101 14.408 0 -0.186523 14.2633 0 -0.123734 13.8677
0 -0.0623459 13.0243 0 -0.0211914 11.1529 0 -0.0528667 11.0002 0
-0.0351934 11.0046 0 -0.0215698 11.0073 -4.84034e-18 -0.0119241 11.0085 -4.67122e-18 -0.00530287
11.0085 -9.01038e-18 -0.00107034 11.0074 0 0.00130162 11.0056 -4.18456e-18 0.00218488 11.0035
-4.03035e-18 0.00207388 11.0012 1.93981e-18 0.000647356 11.0001 0 -0.0752022 10.9938 0
-0.103836 10.9861 0 -0.139853 10.9775 0 -0.184505 10.9689 0 -0.239076
10.9615 0 -0.304757 10.9571 0 -0.382492 10.9583 0 -0.472796 10.9683
0 -0.575422 10.9913 0 -0.688993 11.0321 0 -0.810572 11.0962 0