# vtk DataFile Version 2.0
sampleSurface
ASCII
DATASET POLYDATA
POINTS 15978 float
-4.26165e-19 0.000133477 0 -4.18079e-19 -0.000798814 0 -4.33681e-19 0.001 0 -4.09379e-19 -0.00180187
0 -0.00181681 0.000361473 0 0.00181681 0.000361473 0 -0.00181396 -0.000575145 0
0.00181396 -0.000575145 0 -0.00181945 0.00123202 0 0.00181945 0.00123202 0 -0.00181089
-0.00158285 0 0.00181089 -0.00158285 0 -4.00018e-19 -0.00288105 0 -0.00180759 -0.00266704
0 0.00180759 -0.00266704 0 -0.00351565 8.15481e-05 0 0.00351565 8.15481e-05 0
-0.00351186 -0.000939823 0 0.00351186 -0.000939823 0 -0.00351918 0.00103087 0 0.00351918
0.00103087 0 -0.00352245 0.00191322 0 0.00352245 0.00191322 0 -3.89947e-19 -0.00404214
0 -0.00350777 -0.00203871 0 0.00350777 -0.00203871 0 -0.00180405 -0.00383352 0
0.00180405 -0.00383352 0 -0.00350338 -0.00322101 0 0.00350338 -0.00322101 0 -0.005
8.60602e-05 0 0.005 8.60602e-05 0 -0.005 -0.00103629 0 0.005 -0.00103629
0 -0.005 0.00112923 0 0.005 0.00112923 0 -3.79112e-19 -0.00529135 0
-0.00180023 -0.00508853 0 0.00180023 -0.00508853 0 -0.005 0.00209882 0 0.005
0.00209882 0 -0.005 -0.00224382 0 0.005 -0.00224382 0 -0.00349866 -0.00449304
0 0.00349866 -0.00449304 0 -0.005 0.003 0 0.005 0.003 0
-0.005 -0.003543 0 0.005 -0.003543 0 -0.00637208 2.82617e-05 0 0.00639053
4.25732e-05 0 -0.00637208 0.00114892 0 -0.00637208 -0.00117745 0 0.00639053 -0.00116311
0 0.00639053 0.00116321 0 -3.67455e-19 -0.00663538 0 -0.00179612 -0.00643879 0
0.00179612 -0.00643879 0 -0.00637208 0.00219052 0 0.00639053 0.00220479 0 -0.00349357
-0.00586162 0 0.00349357 -0.00586162 0 -0.00637208 -0.00247467 0 0.00639053 -0.00246031
0 -0.005 -0.00494079 0 0.005 -0.00494079 0 -0.00637208 0.00315864 0
0.00639053 0.00317289 0 -0.00637208 -0.00387036 0 0.00639053 -0.00385597 0 -0.00637208
0.00405846 0 0.00639053 0.00407269 0 -0.00778421 -7.99569e-05 0 0.00781802 -5.3679e-05
0 -0.00778421 0.00112388 0 0.00781802 0.00115011 0 -0.00778421 -0.00137517 0
0.00781802 -0.00134884 0 -3.54912e-19 -0.00808142 0 -0.0017917 -0.00789154 0 0.0017917
-0.00789154 0 -0.00778421 0.0022428 0 -0.0034881 -0.00733407 0 0.0034881 -0.00733407
0 0.00781802 0.00226899 0 -0.005 -0.00644467 0 0.005 -0.00644467 0
-0.00778421 -0.00276868 0 0.00781802 -0.0027423 0 -0.00637208 -0.00537197 0 0.00639053
-0.00535755 0 -0.00778421 0.00328278 0 0.00781802 0.00330893 0 -0.00778421 0.00424939
0 -0.00778421 -0.00426796 0 0.00781802 -0.00424152 0 0.00781802 0.00427551 0
-0.00923755 -0.000243565 0 0.00928347 -0.000207818 0 -0.00923755 0.00104957 0 -0.00778421
0.00514782 0 0.00928347 0.00108525 0 0.00781802 0.0051739 0 -0.00923755 -0.00163485
0 0.00928347 -0.00159903 0 -0.00637208 -0.00698755 0 0.00639053 -0.0069731 0
-0.005 -0.0080627 0 0.005 -0.0080627 0 -0.00923755 0.00225148 0 0.00928347
0.0022871 0 -0.00348222 -0.00891827 0 0.00348222 -0.00891827 0 -0.00178695 -0.00945455
0 0.00178695 -0.00945455 0 -3.41418e-19 -0.00963721 0 -0.00923755 -0.00313172 0
-0.00778421 -0.00588103 0 0.00781802 -0.00585453 0 0.00928347 -0.00309583 0 -0.00923755
0.0033686 0 0.00928347 0.00340416 0 -0.00923755 0.00440692 0 0.00928347 0.00444243
0 -0.00923755 -0.00474221 0 0.00928347 -0.00470623 0 -0.00923755 0.00537198 0
-0.0107333 -0.000467921 0 0.00928347 0.00540745 0 -0.0107333 0.000921062 0 0.0107879
-0.000425364 0 0.00639053 -0.00871127 0 -0.00637208 -0.00872575 0 0.0107879 0.000963535
0 -0.00778421 -0.00761653 0 0.00781802 -0.00758997 0 -0.0107333 -0.00196233 0
0.0107879 -0.00191968 0 -0.0107333 0.00221206 0 -0.005 -0.00980352 0 0.005
-0.00980352 0 0.0107879 0.00225445 0 -0.00923755 0.00626897 0 -0.00347589 -0.0106227
0 0.00347589 -0.0106227 0 0.00928347 0.00630439 0 -0.0107333 0.00341198 0
-0.00178183 -0.0111362 0 0.00178183 -0.0111362 0 -0.00923755 -0.00647493 0 0.00928347
-0.00643887 0 -3.26899e-19 -0.0113111 0 -0.0107333 -0.00357015 0 0.0107879 0.00345431
0 0.0107879 -0.00352741 0 -0.0107333 0.00452726 0 0.0107879 0.00456952 0
-0.0107333 -0.00530001 0 0.0107879 -0.00525717 0 -0.0107333 0.00556386 0 0.0107879
0.00560606 0 -0.000743369 0.0122055 0 0.000743369 0.0122055 0 -0.00778421 -0.00948375
0 0.00781802 -0.00945713 0 -0.0122727 0.000733061 0 -0.0122727 -0.000758799 0
0.0123323 -0.000712262 0 0.0123323 0.0007795 0 0.00639053 -0.0105814 0 -0.00637208
-0.0105959 0 -0.00923755 -0.00833916 0 -0.0122727 0.00211968 0 0.00928347 -0.00830301
0 -0.0122727 -0.00236389 0 0.0123323 0.00216603 0 0.0123323 -0.00231725 0
-0.0107333 0.00652734 0 0.0107879 0.00656947 0 -0.005 -0.0116765 0 0.005
-0.0116765 0 -0.0122727 0.00340848 0 0.0123323 0.00345474 0 -0.000741126 0.0128136
0 0.000741126 0.0128136 0 -0.0107333 -0.00716117 0 0.0107879 -0.00711821 0
-0.00346908 -0.0124565 0 0.00346908 -0.0124565 0 -0.0122727 -0.00409081 0 0.0123323
-0.00404405 0 -0.0107333 0.00742284 0 -0.00177633 -0.0129455 0 0.00177633 -0.0129455
0 -0.0122727 0.00460636 0 -3.11279e-19 -0.013112 0 0.0107879 0.00746492 0
-0.002 0.013 0 0.002 0.013 0 0.0123323 0.00465255 0 -0.0007387
0.0134712 0 0.0007387 0.0134712 0 -0.0122727 0.00571974 0 0.0123323 0.00576585
0 -0.0122727 -0.00594879 0 0.0123323 -0.00590191 0 -0.002 0.0135849 0
0.002 0.0135849 0 -0.0138571 0.000479853 0 -0.00923755 -0.0103449 0 0.00928347
-0.0103086 0 0.00781802 -0.011466 0 -0.00778421 -0.0114927 0 -0.0138571 -0.00112242
0 0.0139177 0.000527252 0 0.0139177 -0.00107491 0 -0.0138571 0.0019691 0
-0.0122727 0.00675458 0 0.0139177 0.00201639 0 0.0123323 0.00680062 0 -0.0107333
-0.00916358 0 0.00639053 -0.0125934 0 0.0107879 -0.0091205 0 -0.00637208 -0.012608
0 -0.0138571 -0.0028463 0 0.0139177 -0.00279868 0 -0.000736077 0.0141824 0
0.000736077 0.0141824 0 -0.00319452 0.0138829 0 0.00320133 0.0138879 0 -0.0138571
0.00335328 0 0.0139177 0.00340049 0 -0.002 0.0142174 0 0.002 0.0142174
0 -0.0122727 0.00771641 0 0.0123323 0.00776239 0 -0.005 -0.0136916 0
0.005 -0.0136916 0 -0.0138571 0.00463982 0 -0.0122727 -0.0079478 0 -0.0138571
-0.00470103 0 0.0123323 -0.00790078 0 0.0139177 -0.00465328 0 0.0139177 0.00468694
0 -0.00319452 0.0144678 0 0.00320133 0.0144728 0 -0.00346175 -0.0144295 0
0.00346175 -0.0144295 0 -0.00073324 0.0149515 0 0.00073324 0.0149515 0 -0.0122727
0.00861039 0 -0.00177041 -0.0148921 0 0.00177041 -0.0148921 0 -0.002 0.0149014
0 0.002 0.0149014 0 -0.0138571 0.0058356 0 -2.94473e-19 -0.0150496 0
0.0123323 0.00865631 0 0.0139177 0.00588264 0 -0.0138571 -0.00669653 0 0.0139177
-0.00664864 0 -0.00319452 0.0151003 0 0.00320133 0.0151053 0 -0.0154877 0.000155282
0 -0.0138571 0.00694702 0 -0.00451419 0.0148583 0 0.0045263 0.0148673 0
0.00928347 -0.0124665 0 -0.00923755 -0.0125028 0 0.0155453 0.000200444 0 -0.0154877
-0.00156548 0 0.0139177 0.00699399 0 -0.0154877 0.00175466 0 -0.0107333 -0.011318
0 0.0107879 -0.0112748 0 0.0155453 -0.00152021 0 0.0155453 0.00179972 0
0.00781802 -0.0136273 0 -0.00778421 -0.0136541 0 -0.002 0.0156411 0 0.002
0.0156411 0 -0.000730172 0.0157833 0 0.000730172 0.0157833 0 -0.0154877 0.0032412
0 -0.0154877 -0.00341685 0 0.0155453 0.00328617 0 -0.0122727 -0.0100985 0
0.0155453 -0.00337146 0 0.0123323 -0.0100514 0 -0.0138571 0.00798004 0 0.0139177
0.00802694 0 0.00639053 -0.0147581 0 -0.00637208 -0.0147727 0 -0.00451419 0.0154432
0 0.0045263 0.0154521 0 -0.00319452 0.0157843 0 0.00320133 0.0157893 0
-0.0154877 0.00462288 0 0.0155453 0.00466776 0 -0.0154877 -0.00540874 0 -0.0138571
-0.00884348 0 0.0155453 -0.00536322 0 0.0139177 -0.00879545 0 -0.0138571 0.00894019
0 -0.002 0.0164411 0 0.002 0.0164411 0 0.0139177 0.00898702 0
-0.0154877 0.00590709 0 -0.005 -0.0158596 0 0.005 -0.0158596 0 0.0155453
0.00595189 0 -0.00451419 0.0160757 0 -0.000726854 0.0166828 0 0.000726854 0.0166828
0 0.0045263 0.0160846 0 -0.00319452 0.016524 0 0.00320133 0.016529 0
-0.00345386 -0.0165523 0 0.00345386 -0.0165523 0 -0.0138571 0.0098326 0 -0.00597213
0.0159359 0 0.00598764 0.0159474 0 -0.0154877 0.00710071 0 0.0139177 0.00987937
0 -0.00176404 -0.0169864 0 0.00176404 -0.0169864 0 0.0155453 0.00714543 0
-2.76391e-19 -0.0171343 0 -0.0171658 -0.000247278 0 0.0172162 -0.000207752 0 -0.0171658
0.00147028 0 -0.0154877 -0.0075518 0 0.0155453 -0.00750615 0 0.0172162 0.00150971
0 -0.0171658 -0.00209519 0 0.0172162 -0.00205556 0 0.0107879 -0.0135925 0
-0.0107333 -0.0136359 0 -0.00451419 0.0167597 0 0.0045263 0.0167686 0 -0.002
0.0173062 0 0.002 0.0173062 0 -0.0171658 0.00306667 0 -0.0122727 -0.0124125
0 0.00928347 -0.0147881 0 0.0123323 -0.0123652 0 -0.00923755 -0.0148246 0
0.0172162 0.00310601 0 -0.0154877 0.00821012 0 -0.00597213 0.0165208 0 0.00598764
0.0165323 0 0.0155453 0.00825477 0 -0.00319452 0.017324 0 0.00320133 0.017329
0 -0.0171658 -0.00408336 0 -0.000723266 0.0176555 0 0.000723266 0.0176555 0
0.0172162 -0.00404362 0 -0.0171658 0.00455044 0 0.00781802 -0.0159527 0 -0.00778421
-0.0159796 0 -0.0138571 -0.0111534 0 0.0139177 -0.0111052 0 0.0172162 0.0045897
0 -0.0154877 0.00924127 0 -0.00451419 0.0174994 0 0.0045263 0.0175084 0
0.0155453 0.00928585 0 -0.0171658 0.00592954 0 -0.00597213 0.0171533 0 0.00598764
0.0171648 0 0.0172162 0.00596872 0 0.00639053 -0.0170872 0 -0.00637208 -0.0171018
0 -0.0171658 -0.00622243 0 0.0172162 -0.00618257 0 -0.002 0.0182418 0
0.002 0.0182418 0 -0.0154877 -0.00985753 0 0.0155453 -0.00981172 0 -0.00319452
0.0181891 0 0.00320133 0.0181941 0 -0.0154877 0.0101997 0 0.0155453 0.0102442
0 -0.0171658 0.00721136 0 0.0172162 0.00725047 0 -0.000719385 0.0187075 0
0.000719385 0.0187075 0 -0.00758282 0.0171264 0 0.00759938 0.0171387 0 -0.00597213
0.0178373 0 0.00598764 0.0178488 0 -0.00451419 0.0182994 0 0.0045263 0.0183083
0 -0.005 -0.0181922 0 0.005 -0.0181922 0 -0.018893 -0.00073496 0
-0.018893 0.0011094 0 0.0189314 -0.000704684 0 0.0189314 0.0011396 0 -0.0154877
0.0110905 0 -0.018893 -0.0027193 0 -0.018893 0.00282365 0 -0.0171658 0.00840275
0 0.0189314 -0.00268894 0 0.0155453 0.0111349 0 0.0189314 0.00285377 0
-0.00344538 -0.0188361 0 0.00344538 -0.0188361 0 -0.0171658 -0.00852385 0 0.0172162
0.00844179 0 0.0172162 -0.00848386 0 -0.00758282 0.0177113 0 0.00759938 0.0177235
0 -0.0122727 -0.0149021 0 0.0123323 -0.0148546 0 -0.00175719 -0.0192397 0
[...]
CELL_DATA 15677
FIELD attributes 1
U 3 15677 float
-0.304869 10.2652 0 0.190474 10.9192 0 -0.101143 9.4467 0 0.031555 10.9901
0 0.118844 10.7323 0 -0.0119274 8.7584 0 0.0455256 11.0075 0
0.0144819 10.9815 0 0.0577124 10.472 0 0.0115304 8.22939 0 0.046692
11.0122 0 0.0433875 11.0311 0 0.0260913 10.9287 0 0.0319076 10.1908
0 0.0113235 7.85618 0 0.0440081 11.0135 0 0.0424013 11.0439 0
0.0428054 11.0209 0 0.0332372 10.8604 0 0.0213716 9.903 0 0.00644188
7.61199 0 0.0413722 11.0136 0 0.0404412 11.0462 0 0.0402057 11.0449
0 0.0398935 11.005 0 0.0328248 10.7693 0 0.0159536 9.63766 0
0.00250583 7.45881 0 0.0386304 11.0131 0 0.0389825 11.0453 0 0.0393798
11.0534 0 0.0385024 11.0446 0 0.0358527 10.9827 0 0.0288614 10.6572
0 0.0121644 9.41251 0 0.000563864 7.36229 0 0.0356038 11.0123 0
0.0373648 11.0435 0 0.0387095 11.056 0 0.0384494 11.0588 0 0.0360552
11.0422 0 0.031847 10.9529 0 0.0240842 10.5327 0 0.00902376 9.2375
0 1.73446e-05 7.30014 0 0.0323207 11.0113 0 0.0354526 11.0411 0
0.0376184 11.0557 0 0.0378881 11.0641 0 0.036124 11.0634 0 0.0329242
11.0365 0 0.0284283 10.9175 0 0.0194946 10.3982 0 0.00646241 9.10673
0 -0.000236586 7.25755 0 0.0288431 11.0101 0 0.0333191 11.0382 0
0.0362188 11.054 0 0.0369415 11.0653 0 0.0355652 11.0718 0 0.0329726
11.0664 0 0.0298313 11.029 0 0.0254246 10.876 0 0.015469 10.2694
0 0.00440821 9.01186 0 -0.000467367 7.23307 0 0.0252485 11.0089 0
0.0309869 11.0349 0 0.0345596 11.0514 0 0.0357221 11.0645 0 0.034656
11.0747 0 0.0324208 11.0785 0 0.0297893 11.0688 0 0.0268458 11.0214
0 0.0222194 10.8306 0 0.0118476 10.1593 0 0.00266745 8.94592 0
-0.000671449 7.22152 0 0.0215339 11.0077 0 0.0284619 11.0312 0 0.0326328
11.0481 0 0.0342375 11.0623 0 0.0334578 11.0747 0 0.0314767 11.0834
0 0.0291308 11.0854 0 0.0266458 11.0725 0 0.02356 11.0145 0
0.0185243 10.7846 0 0.0084526 10.0705 0 0.0011014 8.90386 0 -0.00108751
7.22352 0 0.017825 11.0065 0 0.025848 11.0274 0 0.0304245 11.0443
0 0.0324716 11.0593 0 0.0319746 11.0732 0 0.0301947 11.0845 0
0.0280004 11.0925 0 0.0257271 11.0939 0 0.0231624 11.0785 0 0.0198743
11.0091 0 0.0144036 10.7411 0 0.00514372 10.0053 0 -0.000541153 8.88288
0 -0.00170822 7.23882 0 0.0146263 11.0053 0 0.0231586 11.0233 0
0.0279617 11.0399 0 0.0304068 11.0554 0 0.0301976 11.0704 0 0.0285907
11.0836 0 0.0264689 11.0949 0 0.0242381 11.1034 0 0.0218374 11.1051
0 0.0191411 11.0875 0 0.015684 11.0063 0 0.00992739 10.7052 0
0.00166996 9.96276 0 -0.00221256 8.88098 0 -0.00237523 7.26777 0 0.0120445
11.0043 0 0.0206095 11.0196 0 0.0252801 11.0351 0 0.0280297 11.0509
0 0.0281106 11.0667 0 0.02666 11.0812 0 0.0245617 11.0946 0
0.022271 11.1071 0 0.0198318 11.1171 0 0.0172402 11.1197 0 0.0143974
11.1005 0 0.0107855 11.0078 0 0.00503892 10.6801 0 -0.00191205 9.94204
0 -0.0041026 8.8974 0 -0.00320166 7.31051 0 0.00988854 11.0034 0
0.0183404 11.0164 0 0.0226761 11.0306 0 0.0253455 11.0457 0 0.0256938
11.0621 0 0.0243857 11.0777 0 0.0222763 11.0927 0 0.0198547 11.1076
0 0.017253 11.1221 0 0.0145414 11.1343 0 0.0117462 11.1387 0
0.00874626 11.1184 0 0.00508647 11.0154 0 -0.000324515 10.6683 0 -0.00577734
9.94206 0 -0.00619178 8.93113 0 -0.00411857 7.36725 0 0.00821872 11.0027
0 0.0163146 11.0136 0 0.0203225 11.0267 0 0.0226646 11.0407 0
0.0229363 11.0567 0 0.0217467 11.0732 0 0.019597 11.0894 0 0.0169869
11.106 0 0.0141284 11.1233 0 0.0111503 11.1406 0 0.00815273 11.1559
0 0.00515388 11.1628 0 0.00207591 11.1422 0 -0.00144808 11.0308 0
-0.00619175 10.6711 0 -0.00996653 9.9619 0 -0.00849195 8.9821 0 -0.00511604
7.43775 0 0.00683332 11.0021 0 0.014408 11.0113 0 0.0181581 11.0232
0 0.0201883 11.0362 0 0.0201416 11.0512 0 0.0187281 11.0676 0
0.016504 11.0849 0 0.0136531 11.1028 0 0.0104529 11.122 0 0.00709071
11.1425 0 0.00371777 11.1636 0 0.000436466 11.1828 0 -0.00269296 11.1931
0 -0.00569613 11.173 0 -0.00883934 11.0556 0 -0.0126006 10.6897 0
-0.0145126 10.0006 0 -0.0109876 9.04952 0 -0.0061817 7.52183 0 0.00569553
11.0017 0 0.0127185 11.0093 0 0.0161376 11.0201 0 0.0178578 11.0321
0 0.0175312 11.0462 0 0.015657 11.0618 0 0.0129838 11.0792 0
0.00983679 11.0982 0 0.00621132 11.1188 0 0.00235266 11.1414 0 -0.00153792
11.166 0 -0.00530258 11.1917 0 -0.00879796 11.2157 0 -0.011914 11.2302
0 -0.014625 11.2119 0 -0.0171158 11.091 0 -0.019566 10.7244 0
-0.0194123 10.0576 0 -0.0136719 9.13293 0 -0.00729687 7.61882 0 0.00476114
11.0014 0 0.0111932 11.0078 0 0.0142787 11.0175 0 0.0156762 11.0285
0 0.0150563 11.0415 0 0.012784 11.0563 0 0.00941618 11.073 0
0.00553072 11.0923 0 0.00139003 11.1141 0 -0.00308254 11.1382 0 -0.00763203
11.165 0 -0.012048 11.1946 0 -0.0161328 11.2258 0 -0.0196946 11.2555
0 -0.0225881 11.2752 0 -0.0247522 11.2599 0 -0.0262784 11.1381 0
-0.0270734 10.7755 0 -0.0246466 10.1318 0 -0.0165211 9.23153 0 -0.00846221
7.72805 0 0.00401947 11.0011 0 0.00982315 11.0066 0 0.0125859 11.0152
0 0.013649 11.0253 0 0.0127358 11.0372 0 0.0100641 11.051 0
0.00609166 11.067 0 0.00120105 11.0856 0 -0.00400939 11.1076 0 -0.00922703
11.133 0 -0.0145898 11.1616 0 -0.0198296 11.1937 0 -0.0246977 11.2291
0 -0.0289492 11.2667 0 -0.0323611 11.303 0 -0.0347709 11.3288 0
-0.0360802 11.3177 0 -0.0362976 11.1975 0 -0.0350966 10.8428 0 -0.030195
10.2226 0 -0.0195199 9.3446 0 -0.00965749 7.84879 0 0.00345042 11.001
0 0.00865349 11.0056 0 0.011044 11.0133 0 0.0117848 11.0224 0
0.010581 11.0333 0 0.00752435 11.0461 0 0.00296093 11.0611 0 -0.00280596
11.0789 0 -0.00939766 11.1002 0 -0.016069 11.1259 0 -0.0224236 11.1558
0 -0.0286826 11.1898 0 -0.0345395 11.228 0 -0.0396996 11.2703 0
-0.0438879 11.3151 0 -0.0468709 11.3588 0 -0.0484732 11.3915 0 -0.0485739
11.3859 0 -0.0471131 11.2697 0 -0.0435938 10.9258 0 -0.0360183 10.3289
0 -0.022627 9.47105 0 -0.0108521 7.97982 0 0.00300914 11.0008 0
0.00769616 11.0048 0 0.00969773 11.0117 0 0.0100809 11.0199 0 0.00860198
11.0298 0 0.00518349 11.0415 0 5.90262e-05 11.0554 0 -0.00655124 11.0722
0 -0.0143508 11.0926 0 -0.0228562 11.1175 0 -0.0311109 11.1478 0
-0.0386221 11.1833 0 -0.0457078 11.2236 0 -0.0520159 11.269 0 -0.0572216
11.3188 0 -0.0610428 11.3717 0 -0.0632446 11.4235 0 -0.0636592 11.4639
0 -0.0621622 11.4648 0 -0.0586445 11.3546 0 -0.0524998 11.0237 0
-0.0420448 10.4493 0 -0.0257931 9.60962 0 -0.0120324 8.11991 0 0.00266074
11.0007 0 0.0069087 11.0043 0 0.00857813 11.0105 0 0.00859999 11.0178
0 0.00680311 11.0266 0 0.0030554 11.0373 0 -0.00258738 11.05 0
-0.00999144 11.0655 0 -0.0189469 11.0849 0 -0.0290608 11.1088 0 -0.0396912
11.1382 0 -0.0496144 11.1741 0 -0.0582233 11.2161 0 -0.0659668 11.2638
0 -0.072463 11.3171 0 -0.0773819 11.3754 0 -0.0804484 11.4371 0
-0.0814509 11.4976 0 -0.0802475 11.5463 0 -0.0767324 11.5546 0 -0.0707725
11.4519 0 -0.0617069 11.1355 0 -0.0482164 10.5827 0 -0.0289805 9.75895
0 -0.0131872 8.26772 0 0.00238134 11.0006 0 0.0062585 11.0038 0
0.00765326 11.0095 0 0.00737877 11.016 0 0.00525587 11.0239 0 0.00114922
11.0333 0 -0.00495856 11.0448 0 -0.0130916 11.0591 0 -0.0231326 11.0771
0 -0.0347841 11.0997 0 -0.0475033 11.128 0 -0.0604408 11.1629 0
-0.072042 11.2054 0 -0.0815835 11.2551 0 -0.0897072 11.311 0 -0.0960289
11.3731 0 -0.100232 11.4407 0 -0.102076 11.5116 0 -0.101398 11.5813
0 -0.0981088 11.6387 0 -0.0921534 11.655 0 -0.0833746 11.5612 0
-0.0711082 11.2601 0 -0.0544605 10.7276 0 -0.0321534 9.91759 0 -0.0142961
8.42186 0 0.00215422 11.0006 0 0.00571744 11.0035 0 0.00688327 11.0087
0 0.00637721 11.0146 0 0.00399737 11.0216 0 -0.000457829 11.0298 0
-0.00704043 11.04 0 -0.0158249 11.0529 0 -0.026863 11.0693 0 -0.0399599
11.0904 0 -0.0546782 11.1172 0 -0.0702722 11.1508 0 -0.0856311 11.1922
0 -0.0988138 11.2425 0 -0.109002 11.3008 0 -0.117112 11.366 0
-0.122784 11.4377 0 -0.125747 11.5149 0 -0.125827 11.5956 0 -0.122944
11.6748 0 -0.117083 11.7411 0 -0.108246 11.7658 0 -0.0963103 11.6817
0 -0.0806162 11.396 0 -0.0606978 10.8826 0 -0.035273 10.084 0
-0.0153475 8.58087 0 0.00196744 11.0005 0 0.0052643 11.0032 0 0.00623851
11.008 0 0.00555199 11.0134 0 0.00298164 11.0196 0 -0.00173302 11.0268
0 -0.0087479 11.0356 0 -0.0181716 11.0469 0 -0.0301025 11.0617 0
-0.0445311 11.081 0 -0.0611336 11.106 0 -0.0792769 11.1379 0 -0.097955
11.178 0 -0.115748 11.227 0 -0.130287 11.2861 0 -0.140702 11.354
0 -0.148278 11.4292 0 -0.152718 11.5111 0 -0.153831 11.5985 0
-0.15155 11.6891 0 -0.145895 11.7778 0 -0.136959 11.8531 0 -0.124824
11.8864 0 -0.109416 11.8124 0 -0.0901175 11.5419 0 -0.0668538 11.046
0 -0.0383066 10.2566 0 -0.0163437 8.74335 0 0.00181225 11.0004 0
0.00488243 11.0029 0 0.00569546 11.0075 0 0.0048694 11.0124 0 0.00216072
11.018 0 -0.00273243 11.0243 0 -0.0100555 11.0318 0 -0.0200358 11.0414
0 -0.0328241 11.0542 0 -0.0484509 11.0716 0 -0.0667968 11.0945 0
-0.0873522 11.1244 0 -0.109227 11.1625 0 -0.131102 11.21 0 -0.151215
11.2678 0 -0.166743 11.3368 0 -0.176823 11.4153 0 -0.183215 11.5012
0 -0.185727 11.5937 0 -0.1843 11.6916 0 -0.179006 11.7921 0
-0.170006 11.8902 0 -0.157501 11.9742 0 -0.141688 12.016 0 -0.122541
11.9521 0 -0.0995008 11.6963 0 -0.0728662 11.2162 0 -0.0412337 10.4338
0 -0.0172001 8.9082 0 0.00168218 11.0004 0 0.00455875 11.0027 0
0.00523548 11.007 0 0.00430249 11.0116 0 0.00149605 11.0166 0 -0.00351279
11.0221 0 -0.0110356 11.0285 0 -0.0214027 11.0365 0 -0.034917 11.0473
0 -0.0516826 11.0623 0 -0.0716066 11.0829 0 -0.0944053 11.1104 0
-0.11932 11.1461 0 -0.145144 11.1915 0 -0.170201 11.2477 0 -0.192377
11.3154 0 -0.208366 11.3953 0 -0.217383 11.4852 0 -0.221804 11.5823
0 -0.221603 11.6858 0 -0.216895 11.794 0 -0.207923 11.9044 0
-0.195002 12.0115 0 -0.178471 12.1038 0 -0.158636 12.1536 0 -0.135539
12.0995 0 -0.108667 11.8577 0 -0.0786918 11.3916 0 -0.0439859 10.6143
0 -0.0185109 9.07263 0 0.00157231 11.0004 0 0.00428286 11.0026 0
0.00484352 11.0066 0 0.00382973 11.0108 0 0.000956703 11.0154 0 -0.00411983
11.0203 0 -0.011759 11.0257 0 -0.0223679 11.0323 0 -0.03638 11.0411
0 -0.0540947 11.0535 0 -0.0755138 11.0713 0 -0.100357 11.0961 0
-0.128116 11.129 0 -0.157715 11.1718 0 -0.187582 11.2257 0 -0.215666
11.2917 0 -0.239462 11.3703 0 -0.255196 11.462 0 -0.262277 11.5639
0 -0.263838 11.6727 0 -0.260072 11.7871 0 -0.251308 11.9056 0
-0.237985 12.0253 0 -0.220594 12.1409 0 -0.199616 12.2409 0 -0.175472
12.2982 0 -0.148271 12.2534 0 -0.117543 12.0244 0 -0.0842595 11.5708
0 -0.0471948 10.796 0 -0.0197365 9.26634 0 0.00147886 11.0003 0
0.00404649 11.0024 0 0.00450923 11.0063 0 0.00343379 11.0102 0 0.000517973
11.0144 0 -0.00459014 11.0187 0 -0.0122828 11.0233 0 -0.0230225 11.0287
0 -0.0373402 11.0357 0 -0.0557025 11.0457 0 -0.0783586 11.0602 0
-0.105142 11.0816 0 -0.135512 11.1114 0 -0.168666 11.151 0 -0.203161
11.202 0 -0.237023 11.2656 0 -0.267774 11.3426 0 -0.29256 11.4331
0 -0.307156 11.5375 0 -0.311293 11.6519 0 -0.309013 11.7723 0
-0.30078 11.8976 0 -0.287168 12.026 0 -0.268841 12.1544 0 -0.246474
12.2777 0 -0.220687 12.3846 0 -0.192007 12.4487 0 -0.160627 12.4124
0 -0.126037 12.1952 0 -0.0899531 11.7518 0 -0.0500182 10.9991 0
-0.0200574 9.46539 0 0.00139881 11.0003 0 0.00384313 11.0023 0 0.00422179
11.006 0 0.00310063 11.0097 0 0.000160143 11.0135 0 -0.00495286 11.0173
0 -0.0126524 11.0212 0 -0.0234397 11.0255 0 -0.0379159 11.031 0
-0.0566738 11.0388 0 -0.0801752 11.0503 0 -0.108562 11.0677 0 -0.141421
11.0935 0 -0.177866 11.1295 0 -0.21675 11.1769 0 -0.256208 11.2373
0 -0.293808 11.3118 0 -0.326672 11.4009 0 -0.351627 11.5043 0
-0.364037 11.6219 0 -0.364099 11.749 0 -0.356923 11.8812 0 -0.343296
12.0169 0 -0.324062 12.1545 0 -0.300125 12.291 0 -0.272337 12.4211
0 -0.241445 12.5339 0 -0.208086 12.6038 0 -0.172482 12.5752 0
-0.134354 12.3679 0 -0.095363 11.9541 0 -0.0518566 11.2218 0 -0.0204575
9.66002 0 0.0013297 11.0003 0 0.00366757 11.0022 0 0.00397315 11.0058
0 0.00282017 11.0092 0 -0.000132578 11.0127 0 -0.00523113 11.0161 0
-0.0129039 11.0193 0 -0.0236774 11.0227 0 -0.038202 11.0269 0 -0.0571626
11.0327 0 -0.0811829 11.0415 0 -0.110672 11.0552 0 -0.145596 11.0762
0 -0.185201 11.1074 0 -0.228183 11.1507 0 -0.272988 11.2072 0
-0.31727 11.2784 0 -0.358147 11.3651 0 -0.392361 11.4673 0 -0.416465
11.5843 0 -0.42548 11.7155 0 -0.420242 11.8554 0 -0.407083 11.9989
0 -0.387142 12.1445 0 -0.361559 12.2905 0 -0.331468 12.434 0
-0.297888 12.57 0 -0.261685 12.6876 0 -0.223549 12.7625 0 -0.183906
12.74 0 -0.142689 12.5616 0 -0.100171 12.1769 0 -0.0538697 11.4407
0 -0.0208859 9.84811 0 0.00127018 11.0003 0 0.00351525 11.0021 0
0.00375834 11.0055 0 0.00258278 11.0088 0 -0.000372682 11.0121 0 -0.00544329
11.0151 0 -0.0130655 11.0177 0 -0.0237814 11.0203 0 -0.0382735 11.0233
0 -0.057292 11.0273 0 -0.0815808 11.0337 0 -0.111754 11.044 0
-0.148112 11.0605 0 -0.190356 11.0859 0 -0.237309 11.1237 0 -0.287154
11.1757 0 -0.337873 11.2426 0 -0.38663 11.3259 0 -0.430096 11.4259
0 -0.464667 11.5421 0 -0.48671 11.6733 0 -0.490997 11.8182 0
-0.479178 11.9707 0 -0.458943 12.1249 0 -0.431814 12.2797 0 -0.39922
12.4331 0 -0.362512 12.5826 0 -0.322862 12.7232 0 -0.281201 12.8448
0 -0.238352 12.923 0 -0.195599 12.925 0 -0.150595 12.7753 0
-0.104769 12.3964 0 -0.0558045 11.6531 0 -0.0212421 10.0283 0 0.00338202
11.0021 0 0.00119825 11.0003 0 0.00357126 11.0054 0 0.00238062 11.0085
0 -0.00057011 11.0115 0 -0.00560384 11.0141 0 -0.0131596 11.0163 0
-0.0237873 11.0182 0 -0.0381892 11.0201 0 -0.0571594 11.0226 0 -0.0815283
11.0268 0 -0.112065 11.0341 0 -0.149328 11.0464 0 -0.193427 11.0664
0 -0.243728 11.0974 0 -0.298508 11.143 0 -0.355354 11.205 0
-0.411772 11.2838 0 -0.46441 11.3804 0 -0.509524 11.4947 0 -0.543241
11.6257 0 -0.561852 11.7713 0 -0.559985 11.93 0 -0.540282 12.0945
0 -0.511916 12.2588 0 -0.476792 12.4216 0 -0.436615 12.5814 0
-0.392928 12.7356 0 -0.347006 12.8798 0 -0.299863 13.0038 0 -0.253709
13.1033 0 -0.207033 13.1292 0 -0.157794 12.9862 0 -0.108931 12.6104
0 -0.0574581 11.8575 0 -0.0215075 10.2002 0 0.00340537 11.0052 0
0.00322546 11.002 0 0.00111127 11.0002 0 0.0022069 11.0082 0 -0.000732846
11.011 0 -0.00572392 11.0133 0 -0.0132034 11.0151 0 -0.023723 11.0163
0 -0.0379948 11.0173 0 -0.0568409 11.0185 0 -0.0811511 11.0207 0
-0.111809 11.0253 0 -0.149569 11.0338 0 -0.194864 11.0488 0 -0.247552
11.0732 0 -0.306544 11.1109 0 -0.369462 11.1657 0 -0.433242 11.2392
0 -0.494882 11.3313 0 -0.55054 11.4425 0 -0.596114 11.572 0
-0.627567 11.7183 0 -0.641243 11.8785 0 -0.631743 12.0505 0 -0.602876
12.2263 0 -0.565393 12.3996 0 -0.521564 12.5693 0 -0.473339 12.7342
0 -0.422403 12.8922 0 -0.370114 13.0385 0 -0.319373 13.1824 0
-0.269008 13.3023 0 -0.217331 13.331 0 -0.164234 13.1923 0 -0.1125
12.8171 0 -0.0588199 12.053 0 -0.0216748 10.3632 0 0.00205233 11.0079
0 0.00322293 11.005 0 0.00302747 11.0019 0 0.00102791 11.0002 4.29604e-19
-0.000868767 11.0106 0 -0.0058121 11.0126 0 -0.01321 11.014 0 -0.0236098
11.0147 0 -0.0377255 11.0148 0 -0.0563951 11.0148 0 -0.0805475 11.0154
0 -0.111146 11.0175 0 -0.149094 11.0226 0 -0.195072 11.033 0
-0.249333 11.0514 0 -0.311375 11.0814 0 -0.379547 11.127 0 -0.450722
11.1926 0 -0.521105 11.2791 0 -0.587211 11.3858 0 -0.644752 11.5126
0 -0.689362 11.6582 0 -0.716973 11.82 0 -0.724121 11.9945 0
-0.705504 12.1793 0 -0.666256 12.3655 0 -0.618768 12.5465 0 -0.565642
12.722 0 -0.509014 12.8908 0 -0.450666 13.0508 0 -0.394392 13.2167
0 -0.339058 13.3796 0 -0.282751 13.4991 0 -0.226532 13.5284 0
-0.169804 13.3916 0 -0.115496 13.0153 0 -0.0599083 12.2391 0 -0.0217474
10.5171 0 -0.000992533 11.0102 0 0.00190045 11.0076 0 0.00300669 11.0047
1.8808e-18 0.00283557 11.0017 -1.36018e-18 0.000947761 11.0002 -8.71875e-19 -0.00587677 11.012 0
-0.013189 11.0131 0 -0.0234634 11.0132 0 -0.0374083 11.0126 0 -0.0558672
11.0116 0 -0.0797932 11.0106 0 -0.110204 11.0105 0 -0.148109 11.0127
0 -0.194378 11.019 0 -0.249575 11.0319 0 -0.313674 11.0547 0
-0.385714 11.0913 0 -0.463387 11.1464 0 -0.542679 11.2242 0 -0.619044
11.3252 0 -0.688561 11.4479 0 -0.746579 11.5913 0 -0.788594 11.7534
0 -0.810648 11.9307 0 -0.809631 12.1192 0 -0.780455 12.3157 0
-0.729711 12.5111 0 -0.671461 12.6987 0 -0.608568 12.8785 0 -0.543303
13.0496 0 -0.480468 13.2292 0 -0.419102 13.4137 0 -0.356784 13.5747
0 -0.295016 13.6918 0 -0.234546 13.7196 0 -0.174529 13.5832 0
-0.117964 13.2047 0 -0.0607491 12.4155 0 -0.0217379 10.6617 0 -0.00593996
11.0115 0 -0.00107576 11.0097 -3.80733e-18 0.00173167 11.0072 -1.98035e-18 0.0027963 11.0045
9.54805e-19 0.002647 11.0016 -9.19801e-19 0.000870872 11.0002 0 -0.0131491 11.0122 0
-0.0232949 11.012 0 -0.0370627 11.0107 0 -0.0552917 11.0087 0 -0.0789461
11.0064 0 -0.109079 11.0044 0 -0.146775 11.0039 0 -0.193042 11.0065
0 -0.248684 11.0144 0 -0.314057 11.0306 0 -0.388767 11.0589 0
-0.471305 11.1035 0 -0.558558 11.1695 0 -0.64554 11.2613 0 -0.726952
11.3784 0 -0.798527 11.5182 0 -0.855365 11.679 0 -0.892971 11.8577
0 -0.907669 12.0503 0 -0.896853 12.2519 0 -0.855762 12.4591 0
-0.792547 12.6622 0 -0.722924 12.855 0 -0.649935 13.0376 0 -0.579574
13.2285 0 -0.510995 13.4266 0 -0.441429 13.6086 0 -0.372617 13.7659
0 -0.305746 13.8787 0 -0.241394 13.9037 0 -0.178469 13.7665 0
-0.11995 13.3846 0 -0.0613728 12.5819 0 -0.0216606 10.7971 0 -0.0131229
11.0115 0 -0.0059079 11.0108 8.01317e-18 -0.001126 11.0091 0 0.0015698 11.0068
2.00917e-18 0.00259294 11.0042 5.90387e-22 0.00246237 11.0015 0 0.00079724 11.0002 0
-0.0231135 11.0108 0 -0.0367016 11.009 0 -0.0546931 11.0062 0 -0.0780502
11.0027 0 -0.107846 10.999 0 -0.145215 10.9961 0 -0.191267 10.9954
0 -0.246985 10.9988 0 -0.313024 11.0091 0 -0.389451 11.0296 0
-0.475427 11.0645 0 -0.568745 11.1187 0 -0.665384 11.1973 0 -0.759311
11.3046 0 -0.844509 11.4392 0 -0.916498 11.5971 0 -0.970274 11.7757
0 -1.00153 11.9711 0 -1.00703 12.1783 0 -0.984833 12.392 0
-0.9306 12.6086 0 -0.854108 12.8181 0 -0.772662 13.0143 0 -0.693837
13.217 0 -0.616907 13.4267 0 -0.538684 13.6221 0 -0.4614 13.7997
0 -0.386528 13.9514 0 -0.314964 14.0587 0 -0.247155 14.08 0
-0.181689 13.9409 0 -0.121507 13.5548 0 -0.0618098 12.7384 0 -0.0215283
10.9237 0 -0.0229665 11.0098 0 -0.0129245 11.0106 4.72838e-22 -0.00575833 11.01
0 -0.00117396 11.0085 -2.11432e-18 0.00141681 11.0064 4.25598e-22 0.0023968 11.004 0
0.00228171 11.0014 0 0.000726851 11.0001 0 -0.0363345 11.0076 0 -0.0540866
11.004 0 -0.0771369 10.9994 0 -0.106561 10.9943 0 -0.143525 10.9893
0 -0.18921 10.9856 0 -0.244732 10.985 0 -0.310975 10.9898 0
-0.388374 11.0032 0 -0.476641 11.0291 0 -0.574342 11.0722 0 -0.67847
11.1375 0 -0.783995 11.2305 0 -0.883782 11.355 0 -0.971178 11.5083
0 -1.04167 11.6851 0 -1.09032 11.8817 0 -1.1132 12.0934 0
-1.10769 12.3144 0 -1.07263 12.5389 0 -1.00418 12.7633 0 -0.913783
12.9774 0 -0.825615 13.1944 0 -0.739207 13.4162 0 -0.650904 13.6232
0 -0.563511 13.8139 0 -0.479003 13.9854 0 -0.398552 14.1303 0
-0.322768 14.2313 0 -0.251918 14.2479 0 -0.18426 14.1061 0 -0.122684
13.7153 0 -0.0620863 12.8852 0 -0.0213521 11.0415 0 -0.0360297 11.0062
0 -0.0225406 11.0087 -4.43149e-18 -0.0124806 11.0096 0 -0.0056132 11.0093 0
-0.00120866 11.008 6.43165e-18 0.00127259 11.006 0 0.00220771 11.0038 0 0.00210521
11.0013 1.91666e-18 0.000659687 11.0001 0 -0.0534824 11.0021 0 -0.0762243 10.9966
0 -0.105264 10.99 0 -0.141776 10.9831 0 -0.186992 10.9769 0
-0.242123 10.9727 0 -0.308226 10.9727 0 -0.386026 10.9797 0 -0.475677
10.9973 0 -0.576397 11.0299 0 -0.686057 11.0826 0 -0.800736 11.1609
0 -0.914309 11.2699 0 -1.01852 11.4131 0 -1.10621 11.5863 0
-1.17305 11.7825 0 -1.21439 11.997 0 -1.22685 12.2242 0 -1.20859
12.4578 0 -1.15933 12.6917 0 -1.07577 12.9221 0 -0.977518 13.1579
0 -0.880522 13.3947 0 -0.780659 13.6141 0 -0.681465 13.8162 0
-0.585468 14.0005 0 -0.49429 14.1645 0 -0.408801 14.302 0 -0.329275
14.396 0 -0.255783 14.4072 0 -0.186258 14.2621 0 -0.123532 13.8661
0 -0.0622277 13.0224 0 -0.0211425 11.1511 0 -0.0529773 11.0003 0
-0.0353008 11.0048 0 -0.0216847 11.0074 -4.8429e-18 -0.012053 11.0086 -4.67375e-18 -0.00544873
11.0085 -9.01537e-18 -0.00123005 11.0074 0 0.00113722 11.0056 -4.18702e-18 0.00202588 11.0035
-4.03275e-18 0.00193284 11.0013 1.94097e-18 0.000595723 11.0001 0 -0.0753235 10.994 0
-0.103976 10.9863 0 -0.140019 10.9777 0 -0.184702 10.9691 0 -0.239308
10.9617 0 -0.305023 10.9574 0 -0.382793 10.9586 0 -0.473127 10.9687
0 -0.575777 10.9917 0 -0.689363 11.0326 0 -0.810947 11.0967 0