#           x             T
    -0.118946       349.513
    -0.118121       349.505
    -0.117174       349.502
    -0.116087       349.501
    -0.114839         349.5
    -0.113407         349.5
    -0.111763       349.499
    -0.109877       349.499
    -0.107712       349.499
    -0.105226       349.499
    -0.102373       349.501
   -0.0990994       349.504
   -0.0953416       349.511
   -0.0914285       349.526
    -0.087619       349.557
   -0.0838095       349.615
        -0.08       349.728
   -0.0761904       349.944
   -0.0723809       350.351
   -0.0685714       351.109
   -0.0649271       352.417
    -0.061624       354.438
   -0.0586549       357.267
   -0.0559862       360.878
   -0.0535874       365.109
   -0.0514312       369.701
   -0.0494932       374.334
   -0.0477512       378.702
   -0.0461853       382.562
   -0.0447779       385.759
   -0.0435128       388.242
   -0.0423757       390.055
   -0.0413536       391.291
   -0.0404349       392.097
     -0.03925       392.602
     -0.03775       392.653
     -0.03625       392.285
     -0.03475       391.685
     -0.03325       391.016
     -0.03175       390.366
     -0.03025       389.775
     -0.02875       389.255
     -0.02725       388.804
     -0.02575       388.421
   -0.0243993       388.112
   -0.0231362       387.857
    -0.021743       387.611
   -0.0202065       387.366
   -0.0185118       387.123
   -0.0171075        386.94
   -0.0161272        386.82
   -0.0145812       386.645
    -0.012414        386.42
   -0.0103452        386.23
  -0.00847254       386.081
  -0.00711441       385.987
  -0.00630907       385.936
  -0.00524316       385.876
  -0.00385435       385.812
  -0.00259726        385.77
  -0.00133333        385.74
            0       385.724
   0.00133333       385.724
   0.00260066       385.739
   0.00386381       385.768
   0.00525697       385.816
   0.00631696       385.864
   0.00712283       385.906
    0.0084882       385.987
    0.0103573        386.12
    0.0124188       386.296
    0.0145859       386.518
    0.0161321       386.697
     0.017115       386.825
    0.0185274       387.028
    0.0202225       387.305
    0.0217568       387.595
    0.0231456       387.891
    0.0244027       388.204
      0.02575       388.582
      0.02725       389.046
      0.02875       389.579
      0.03025       390.175
      0.03175       390.825
      0.03325       391.508
      0.03475        392.16
      0.03625       392.666
      0.03775       392.853
      0.03925       392.553
    0.0404349       391.811
    0.0413536       390.812
    0.0423757       389.404
    0.0435128       387.442
    0.0447779       384.851
    0.0461853       381.609
    0.0477511       377.774
    0.0494932       373.498
    0.0514312       369.005
    0.0535874       364.575
    0.0559862       360.498
    0.0586549       357.017
     0.061624        354.29
    0.0649271       352.338
    0.0685714       351.071
    0.0723809       350.334
    0.0761904       349.937
         0.08       349.726
    0.0838095       349.615
     0.087619       349.557
    0.0914285       349.527
    0.0953419       349.512
    0.0991002       349.505
     0.102374       349.502
     0.105227         349.5
     0.107713         349.5
     0.109878         349.5
     0.111765         349.5
     0.113408       349.501
      0.11484       349.501
     0.116088       349.502
     0.117175       349.503
     0.118122       349.506
     0.118947       349.513
     0.119665       349.521
