#           x             T
    -0.118947       349.528
    -0.118121       349.527
    -0.117174       349.525
    -0.116087       349.524
     -0.11484       349.523
    -0.113408       349.522
    -0.111764       349.521
    -0.109877        349.52
    -0.107712       349.519
    -0.105227       349.518
    -0.102374       349.518
   -0.0990995       349.518
   -0.0953416       349.519
   -0.0914285       349.524
   -0.0876191       349.536
   -0.0838095       349.561
        -0.08       349.616
   -0.0761904       349.729
   -0.0723809       349.964
   -0.0685715       350.447
   -0.0649271       351.374
    -0.061624       352.988
    -0.058655        355.55
   -0.0559862        359.23
   -0.0535874       363.981
   -0.0514313       369.517
   -0.0494932       375.374
   -0.0477512       380.996
   -0.0461853       385.883
   -0.0447779       389.729
   -0.0435128       392.502
   -0.0423757       394.358
   -0.0413536       395.493
   -0.0404349       396.087
     -0.03925       396.173
     -0.03775       395.436
     -0.03625       393.981
     -0.03475       392.259
     -0.03325        390.63
     -0.03175       389.239
     -0.03025       388.114
     -0.02875       387.234
     -0.02725       386.563
     -0.02575       386.067
   -0.0243994       385.723
   -0.0231362       385.481
    -0.021743       385.291
   -0.0202065       385.149
   -0.0189203       385.064
   -0.0180315       385.018
   -0.0166427       384.961
   -0.0145812       384.902
    -0.012414       384.862
   -0.0110231       384.841
   -0.0100402       384.826
  -0.00847254       384.802
  -0.00677747       384.781
  -0.00524316       384.762
  -0.00385435       384.747
  -0.00288618       384.739
  -0.00228892       384.735
  -0.00133333        384.73
            0       384.726
   0.00133333       384.727
     0.002289       384.732
   0.00288966       384.735
   0.00386381       384.743
   0.00525697       384.758
   0.00679351        384.78
    0.0084882       384.808
    0.0100473       384.841
    0.0110276       384.864
    0.0124188       384.901
    0.0145859       384.971
    0.0166548       385.073
    0.0180384       385.164
    0.0189282       385.235
    0.0202225        385.36
    0.0217568       385.555
    0.0231456       385.795
    0.0244027       386.083
      0.02575       386.478
      0.02725       387.028
      0.02875        387.75
      0.03025       388.675
      0.03175       389.838
      0.03325       391.255
      0.03475       392.884
      0.03625       394.531
      0.03775       395.795
      0.03925        396.27
    0.0404349       395.972
    0.0413536       395.218
    0.0423757       393.942
    0.0435128       391.956
    0.0447779       389.067
    0.0461853        385.15
    0.0477511       380.258
    0.0494932        374.69
    0.0514312       368.947
    0.0535874        363.55
    0.0559862       358.935
    0.0586549       355.368
     0.061624       352.887
    0.0649271       351.323
    0.0685714       350.423
    0.0723809       349.954
    0.0761904       349.725
         0.08       349.614
    0.0838095       349.561
     0.087619       349.536
    0.0914285       349.525
    0.0953419        349.52
    0.0991002       349.518
     0.102374       349.518
     0.105227       349.519
     0.107713        349.52
     0.109878        349.52
     0.111765       349.521
     0.113408       349.522
      0.11484       349.523
     0.116088       349.524
     0.117175       349.526
     0.118122       349.527
     0.118947       349.528
     0.119665       349.531
