# vtk DataFile Version 2.0
sampleSurface
ASCII
DATASET POLYDATA
POINTS 15978 float
-4.26165e-19 0.000133477 0 -4.18079e-19 -0.000798814 0 -4.33681e-19 0.001 0 -4.09379e-19 -0.00180187
0 -0.00181681 0.000361473 0 0.00181681 0.000361473 0 -0.00181396 -0.000575145 0
0.00181396 -0.000575145 0 -0.00181945 0.00123202 0 0.00181945 0.00123202 0 -0.00181089
-0.00158285 0 0.00181089 -0.00158285 0 -4.00018e-19 -0.00288105 0 -0.00180759 -0.00266704
0 0.00180759 -0.00266704 0 -0.00351565 8.15481e-05 0 0.00351565 8.15481e-05 0
-0.00351186 -0.000939823 0 0.00351186 -0.000939823 0 -0.00351918 0.00103087 0 0.00351918
0.00103087 0 -0.00352245 0.00191322 0 0.00352245 0.00191322 0 -3.89947e-19 -0.00404214
0 -0.00350777 -0.00203871 0 0.00350777 -0.00203871 0 -0.00180405 -0.00383352 0
0.00180405 -0.00383352 0 -0.00350338 -0.00322101 0 0.00350338 -0.00322101 0 -0.005
8.60602e-05 0 0.005 8.60602e-05 0 -0.005 -0.00103629 0 0.005 -0.00103629
0 -0.005 0.00112923 0 0.005 0.00112923 0 -3.79112e-19 -0.00529135 0
-0.00180023 -0.00508853 0 0.00180023 -0.00508853 0 -0.005 0.00209882 0 0.005
0.00209882 0 -0.005 -0.00224382 0 0.005 -0.00224382 0 -0.00349866 -0.00449304
0 0.00349866 -0.00449304 0 -0.005 0.003 0 0.005 0.003 0
-0.005 -0.003543 0 0.005 -0.003543 0 -0.00637208 2.82617e-05 0 0.00639053
4.25732e-05 0 -0.00637208 0.00114892 0 -0.00637208 -0.00117745 0 0.00639053 -0.00116311
0 0.00639053 0.00116321 0 -3.67455e-19 -0.00663538 0 -0.00179612 -0.00643879 0
0.00179612 -0.00643879 0 -0.00637208 0.00219052 0 0.00639053 0.00220479 0 -0.00349357
-0.00586162 0 0.00349357 -0.00586162 0 -0.00637208 -0.00247467 0 0.00639053 -0.00246031
0 -0.005 -0.00494079 0 0.005 -0.00494079 0 -0.00637208 0.00315864 0
0.00639053 0.00317289 0 -0.00637208 -0.00387036 0 0.00639053 -0.00385597 0 -0.00637208
0.00405846 0 0.00639053 0.00407269 0 -0.00778421 -7.99569e-05 0 0.00781802 -5.3679e-05
0 -0.00778421 0.00112388 0 0.00781802 0.00115011 0 -0.00778421 -0.00137517 0
0.00781802 -0.00134884 0 -3.54912e-19 -0.00808142 0 -0.0017917 -0.00789154 0 0.0017917
-0.00789154 0 -0.00778421 0.0022428 0 -0.0034881 -0.00733407 0 0.0034881 -0.00733407
0 0.00781802 0.00226899 0 -0.005 -0.00644467 0 0.005 -0.00644467 0
-0.00778421 -0.00276868 0 0.00781802 -0.0027423 0 -0.00637208 -0.00537197 0 0.00639053
-0.00535755 0 -0.00778421 0.00328278 0 0.00781802 0.00330893 0 -0.00778421 0.00424939
0 -0.00778421 -0.00426796 0 0.00781802 -0.00424152 0 0.00781802 0.00427551 0
-0.00923755 -0.000243565 0 0.00928347 -0.000207818 0 -0.00923755 0.00104957 0 -0.00778421
0.00514782 0 0.00928347 0.00108525 0 0.00781802 0.0051739 0 -0.00923755 -0.00163485
0 0.00928347 -0.00159903 0 -0.00637208 -0.00698755 0 0.00639053 -0.0069731 0
-0.005 -0.0080627 0 0.005 -0.0080627 0 -0.00923755 0.00225148 0 0.00928347
0.0022871 0 -0.00348222 -0.00891827 0 0.00348222 -0.00891827 0 -0.00178695 -0.00945455
0 0.00178695 -0.00945455 0 -3.41418e-19 -0.00963721 0 -0.00923755 -0.00313172 0
-0.00778421 -0.00588103 0 0.00781802 -0.00585453 0 0.00928347 -0.00309583 0 -0.00923755
0.0033686 0 0.00928347 0.00340416 0 -0.00923755 0.00440692 0 0.00928347 0.00444243
0 -0.00923755 -0.00474221 0 0.00928347 -0.00470623 0 -0.00923755 0.00537198 0
-0.0107333 -0.000467921 0 0.00928347 0.00540745 0 -0.0107333 0.000921062 0 0.0107879
-0.000425364 0 0.00639053 -0.00871127 0 -0.00637208 -0.00872575 0 0.0107879 0.000963535
0 -0.00778421 -0.00761653 0 0.00781802 -0.00758997 0 -0.0107333 -0.00196233 0
0.0107879 -0.00191968 0 -0.0107333 0.00221206 0 -0.005 -0.00980352 0 0.005
-0.00980352 0 0.0107879 0.00225445 0 -0.00923755 0.00626897 0 -0.00347589 -0.0106227
0 0.00347589 -0.0106227 0 0.00928347 0.00630439 0 -0.0107333 0.00341198 0
-0.00178183 -0.0111362 0 0.00178183 -0.0111362 0 -0.00923755 -0.00647493 0 0.00928347
-0.00643887 0 -3.26899e-19 -0.0113111 0 -0.0107333 -0.00357015 0 0.0107879 0.00345431
0 0.0107879 -0.00352741 0 -0.0107333 0.00452726 0 0.0107879 0.00456952 0
-0.0107333 -0.00530001 0 0.0107879 -0.00525717 0 -0.0107333 0.00556386 0 0.0107879
0.00560606 0 -0.000743369 0.0122055 0 0.000743369 0.0122055 0 -0.00778421 -0.00948375
0 0.00781802 -0.00945713 0 -0.0122727 0.000733061 0 -0.0122727 -0.000758799 0
0.0123323 -0.000712262 0 0.0123323 0.0007795 0 0.00639053 -0.0105814 0 -0.00637208
-0.0105959 0 -0.00923755 -0.00833916 0 -0.0122727 0.00211968 0 0.00928347 -0.00830301
0 -0.0122727 -0.00236389 0 0.0123323 0.00216603 0 0.0123323 -0.00231725 0
-0.0107333 0.00652734 0 0.0107879 0.00656947 0 -0.005 -0.0116765 0 0.005
-0.0116765 0 -0.0122727 0.00340848 0 0.0123323 0.00345474 0 -0.000741126 0.0128136
0 0.000741126 0.0128136 0 -0.0107333 -0.00716117 0 0.0107879 -0.00711821 0
-0.00346908 -0.0124565 0 0.00346908 -0.0124565 0 -0.0122727 -0.00409081 0 0.0123323
-0.00404405 0 -0.0107333 0.00742284 0 -0.00177633 -0.0129455 0 0.00177633 -0.0129455
0 -0.0122727 0.00460636 0 -3.11279e-19 -0.013112 0 0.0107879 0.00746492 0
-0.002 0.013 0 0.002 0.013 0 0.0123323 0.00465255 0 -0.0007387
0.0134712 0 0.0007387 0.0134712 0 -0.0122727 0.00571974 0 0.0123323 0.00576585
0 -0.0122727 -0.00594879 0 0.0123323 -0.00590191 0 -0.002 0.0135849 0
0.002 0.0135849 0 -0.0138571 0.000479853 0 -0.00923755 -0.0103449 0 0.00928347
-0.0103086 0 0.00781802 -0.011466 0 -0.00778421 -0.0114927 0 -0.0138571 -0.00112242
0 0.0139177 0.000527252 0 0.0139177 -0.00107491 0 -0.0138571 0.0019691 0
-0.0122727 0.00675458 0 0.0139177 0.00201639 0 0.0123323 0.00680062 0 -0.0107333
-0.00916358 0 0.00639053 -0.0125934 0 0.0107879 -0.0091205 0 -0.00637208 -0.012608
0 -0.0138571 -0.0028463 0 0.0139177 -0.00279868 0 -0.000736077 0.0141824 0
0.000736077 0.0141824 0 -0.00319452 0.0138829 0 0.00320133 0.0138879 0 -0.0138571
0.00335328 0 0.0139177 0.00340049 0 -0.002 0.0142174 0 0.002 0.0142174
0 -0.0122727 0.00771641 0 0.0123323 0.00776239 0 -0.005 -0.0136916 0
0.005 -0.0136916 0 -0.0138571 0.00463982 0 -0.0122727 -0.0079478 0 -0.0138571
-0.00470103 0 0.0123323 -0.00790078 0 0.0139177 -0.00465328 0 0.0139177 0.00468694
0 -0.00319452 0.0144678 0 0.00320133 0.0144728 0 -0.00346175 -0.0144295 0
0.00346175 -0.0144295 0 -0.00073324 0.0149515 0 0.00073324 0.0149515 0 -0.0122727
0.00861039 0 -0.00177041 -0.0148921 0 0.00177041 -0.0148921 0 -0.002 0.0149014
0 0.002 0.0149014 0 -0.0138571 0.0058356 0 -2.94473e-19 -0.0150496 0
0.0123323 0.00865631 0 0.0139177 0.00588264 0 -0.0138571 -0.00669653 0 0.0139177
-0.00664864 0 -0.00319452 0.0151003 0 0.00320133 0.0151053 0 -0.0154877 0.000155282
0 -0.0138571 0.00694702 0 -0.00451419 0.0148583 0 0.0045263 0.0148673 0
0.00928347 -0.0124665 0 -0.00923755 -0.0125028 0 0.0155453 0.000200444 0 -0.0154877
-0.00156548 0 0.0139177 0.00699399 0 -0.0154877 0.00175466 0 -0.0107333 -0.011318
0 0.0107879 -0.0112748 0 0.0155453 -0.00152021 0 0.0155453 0.00179972 0
0.00781802 -0.0136273 0 -0.00778421 -0.0136541 0 -0.002 0.0156411 0 0.002
0.0156411 0 -0.000730172 0.0157833 0 0.000730172 0.0157833 0 -0.0154877 0.0032412
0 -0.0154877 -0.00341685 0 0.0155453 0.00328617 0 -0.0122727 -0.0100985 0
0.0155453 -0.00337146 0 0.0123323 -0.0100514 0 -0.0138571 0.00798004 0 0.0139177
0.00802694 0 0.00639053 -0.0147581 0 -0.00637208 -0.0147727 0 -0.00451419 0.0154432
0 0.0045263 0.0154521 0 -0.00319452 0.0157843 0 0.00320133 0.0157893 0
-0.0154877 0.00462288 0 0.0155453 0.00466776 0 -0.0154877 -0.00540874 0 -0.0138571
-0.00884348 0 0.0155453 -0.00536322 0 0.0139177 -0.00879545 0 -0.0138571 0.00894019
0 -0.002 0.0164411 0 0.002 0.0164411 0 0.0139177 0.00898702 0
-0.0154877 0.00590709 0 -0.005 -0.0158596 0 0.005 -0.0158596 0 0.0155453
0.00595189 0 -0.00451419 0.0160757 0 -0.000726854 0.0166828 0 0.000726854 0.0166828
0 0.0045263 0.0160846 0 -0.00319452 0.016524 0 0.00320133 0.016529 0
-0.00345386 -0.0165523 0 0.00345386 -0.0165523 0 -0.0138571 0.0098326 0 -0.00597213
0.0159359 0 0.00598764 0.0159474 0 -0.0154877 0.00710071 0 0.0139177 0.00987937
0 -0.00176404 -0.0169864 0 0.00176404 -0.0169864 0 0.0155453 0.00714543 0
-2.76391e-19 -0.0171343 0 -0.0171658 -0.000247278 0 0.0172162 -0.000207752 0 -0.0171658
0.00147028 0 -0.0154877 -0.0075518 0 0.0155453 -0.00750615 0 0.0172162 0.00150971
0 -0.0171658 -0.00209519 0 0.0172162 -0.00205556 0 0.0107879 -0.0135925 0
-0.0107333 -0.0136359 0 -0.00451419 0.0167597 0 0.0045263 0.0167686 0 -0.002
0.0173062 0 0.002 0.0173062 0 -0.0171658 0.00306667 0 -0.0122727 -0.0124125
0 0.00928347 -0.0147881 0 0.0123323 -0.0123652 0 -0.00923755 -0.0148246 0
0.0172162 0.00310601 0 -0.0154877 0.00821012 0 -0.00597213 0.0165208 0 0.00598764
0.0165323 0 0.0155453 0.00825477 0 -0.00319452 0.017324 0 0.00320133 0.017329
0 -0.0171658 -0.00408336 0 -0.000723266 0.0176555 0 0.000723266 0.0176555 0
0.0172162 -0.00404362 0 -0.0171658 0.00455044 0 0.00781802 -0.0159527 0 -0.00778421
-0.0159796 0 -0.0138571 -0.0111534 0 0.0139177 -0.0111052 0 0.0172162 0.0045897
0 -0.0154877 0.00924127 0 -0.00451419 0.0174994 0 0.0045263 0.0175084 0
0.0155453 0.00928585 0 -0.0171658 0.00592954 0 -0.00597213 0.0171533 0 0.00598764
0.0171648 0 0.0172162 0.00596872 0 0.00639053 -0.0170872 0 -0.00637208 -0.0171018
0 -0.0171658 -0.00622243 0 0.0172162 -0.00618257 0 -0.002 0.0182418 0
0.002 0.0182418 0 -0.0154877 -0.00985753 0 0.0155453 -0.00981172 0 -0.00319452
0.0181891 0 0.00320133 0.0181941 0 -0.0154877 0.0101997 0 0.0155453 0.0102442
0 -0.0171658 0.00721136 0 0.0172162 0.00725047 0 -0.000719385 0.0187075 0
0.000719385 0.0187075 0 -0.00758282 0.0171264 0 0.00759938 0.0171387 0 -0.00597213
0.0178373 0 0.00598764 0.0178488 0 -0.00451419 0.0182994 0 0.0045263 0.0183083
0 -0.005 -0.0181922 0 0.005 -0.0181922 0 -0.018893 -0.00073496 0
-0.018893 0.0011094 0 0.0189314 -0.000704684 0 0.0189314 0.0011396 0 -0.0154877
0.0110905 0 -0.018893 -0.0027193 0 -0.018893 0.00282365 0 -0.0171658 0.00840275
0 0.0189314 -0.00268894 0 0.0155453 0.0111349 0 0.0189314 0.00285377 0
-0.00344538 -0.0188361 0 0.00344538 -0.0188361 0 -0.0171658 -0.00852385 0 0.0172162
0.00844179 0 0.0172162 -0.00848386 0 -0.00758282 0.0177113 0 0.00759938 0.0177235
0 -0.0122727 -0.0149021 0 0.0123323 -0.0148546 0 -0.00175719 -0.0192397 0
[...]
CELL_DATA 15677
FIELD attributes 1
U 3 15677 float
-0.304872 10.2652 0 0.190477 10.9192 0 -0.101144 9.44664 0 0.0315583 10.9901
0 0.118847 10.7323 0 -0.0119267 8.75831 0 0.04553 11.0075 0
0.0144873 10.9815 0 0.0577145 10.4719 0 0.011531 8.22927 0 0.046698
11.0122 0 0.0433947 11.031 0 0.026096 10.9286 0 0.0319089 10.1907
0 0.0113237 7.85604 0 0.044016 11.0135 0 0.0424123 11.0438 0
0.0428126 11.0208 0 0.0332406 10.8603 0 0.0213723 9.90284 0 0.0064419
7.61185 0 0.0413819 11.0136 0 0.0404553 11.0461 0 0.0402161 11.0448
0 0.0398993 11.0048 0 0.0328263 10.7691 0 0.0159534 9.6375 0
0.00250556 7.45866 0 0.0386424 11.0131 0 0.0390003 11.0453 0 0.0393941
11.0533 0 0.0385112 11.0445 0 0.035856 10.9825 0 0.0288612 10.657
0 0.0121638 9.41236 0 0.000563286 7.36215 0 0.0356184 11.0123 0
0.0373875 11.0435 0 0.0387285 11.0559 0 0.0384617 11.0587 0 0.0360608
11.042 0 0.0318472 10.9527 0 0.0240821 10.5325 0 0.00902314 9.23738
0 1.67168e-05 7.30002 0 0.0323383 11.0113 0 0.0354805 11.041 0
0.0376427 11.0556 0 0.0379043 11.0639 0 0.0361322 11.0633 0 0.0329258
11.0363 0 0.0284257 10.9173 0 0.0194915 10.398 0 0.0064616 9.10663
0 -0.000237029 7.25744 0 0.0288642 11.0101 0 0.033353 11.0381 0
0.0362491 11.0539 0 0.0369623 11.0652 0 0.0355765 11.0716 0 0.0329759
11.0662 0 0.0298291 11.0288 0 0.0254197 10.8758 0 0.0154657 10.2693
0 0.00440754 9.01177 0 -0.000467552 7.23295 0 0.0252742 11.0089 0
0.0310278 11.0348 0 0.0345966 11.0513 0 0.0357483 11.0643 0 0.0346709
11.0745 0 0.0324262 11.0783 0 0.0297879 11.0686 0 0.0268405 11.0211
0 0.0222135 10.8304 0 0.0118447 10.1593 0 0.00266715 8.94586 0
-0.000671329 7.22141 0 0.0215606 11.0077 0 0.0285101 11.0312 0 0.0326775
11.048 0 0.0342697 11.0622 0 0.0334768 11.0746 0 0.0314844 11.0831
0 0.0291303 11.0852 0 0.0266403 11.0723 0 0.0235527 11.0143 0
0.0185183 10.7845 0 0.00845044 10.0705 0 0.00110159 8.90381 0 -0.00108687
7.2234 0 0.0178574 11.0065 0 0.0259086 11.0273 0 0.0304777 11.0442
0 0.0325107 11.0591 0 0.0319984 11.073 0 0.0302051 11.0843 0
0.028001 11.0922 0 0.0257216 11.0937 0 0.0231543 11.0783 0 0.0198662
11.0089 0 0.0143982 10.7409 0 0.00514216 10.0053 0 -0.000541378 8.88284
0 -0.00170738 7.23869 0 0.0146624 11.0053 0 0.023229 11.0233 0
0.0280251 11.0398 0 0.0304536 11.0553 0 0.0302267 11.0702 0 0.0286041
11.0834 0 0.0264707 11.0946 0 0.0242327 11.1031 0 0.0218286 11.1048
0 0.0191317 11.0873 0 0.015676 11.0061 0 0.00992298 10.7051 0
0.0016686 9.96275 0 -0.00221197 8.88094 0 -0.00237446 7.26764 0 0.0120841
11.0043 0 0.0206906 11.0196 0 0.0253539 11.035 0 0.028085 11.0507
0 0.0281456 11.0665 0 0.0266768 11.081 0 0.024565 11.0944 0
0.0222657 11.1068 0 0.0198223 11.1168 0 0.0172296 11.1195 0 0.0143878
11.1003 0 0.0107783 11.0076 0 0.00503597 10.68 0 -0.00191221 9.94204
0 -0.00410157 8.89737 0 -0.00320092 7.31037 0 0.00993077 11.0034 0
0.0184304 11.0164 0 0.0227601 11.0305 0 0.0254102 11.0456 0 0.0257353
11.0619 0 0.0244064 11.0775 0 0.0222813 11.0925 0 0.0198496 11.1073
0 0.0172428 11.1219 0 0.0145297 11.1341 0 0.0117353 11.1384 0
0.00873742 11.1182 0 0.00508057 11.0153 0 -0.000326394 10.6682 0 -0.0057769
9.94208 0 -0.00619055 8.9311 0 -0.00411797 7.36709 0 0.00826503 11.0027
0 0.016416 11.0136 0 0.0204165 11.0266 0 0.0227387 11.0406 0
0.0229852 11.0565 0 0.0217718 11.0729 0 0.0196039 11.0892 0 0.016982
11.1058 0 0.0141174 11.123 0 0.0111375 11.1404 0 0.00814059 11.1557
0 0.00514378 11.1626 0 0.00206797 11.142 0 -0.00145283 11.0307 0
-0.00619301 10.671 0 -0.0099659 9.96193 0 -0.00849071 8.98207 0 -0.00511593
7.43758 0 0.00688191 11.0021 0 0.0145146 11.0112 0 0.0182582 11.0231
0 0.0202715 11.0361 0 0.0201982 11.051 0 0.0187581 11.0674 0
0.0165131 11.0847 0 0.0136485 11.1026 0 0.0104411 11.1218 0 0.00707662
11.1423 0 0.00370436 11.1634 0 0.000425229 11.1826 0 -0.00270185 11.1929
0 -0.00570243 11.1728 0 -0.00884312 11.0555 0 -0.0126017 10.6897 0
-0.0145122 10.0007 0 -0.0109868 9.04949 0 -0.00618181 7.52166 0 0.00574692
11.0017 0 0.0128327 11.0093 0 0.0162467 11.02 0 0.0179494 11.032
0 0.0175954 11.046 0 0.0156925 11.0616 0 0.0129955 11.079 0
0.0098327 11.098 0 0.00619879 11.1186 0 0.00233727 11.1412 0 -0.00155266
11.1658 0 -0.0053149 11.1915 0 -0.00880732 11.2155 0 -0.011921 11.23
0 -0.01463 11.2118 0 -0.0171191 11.0909 0 -0.0195673 10.7244 0
-0.0194129 10.0576 0 -0.0136716 9.13291 0 -0.00729735 7.61864 0 0.00481537
11.0014 0 0.0113152 11.0078 0 0.0143954 11.0174 0 0.0157765 11.0284
0 0.0151284 11.0414 0 0.0128251 11.0561 0 0.0094311 11.0728 0
0.00552743 11.0921 0 0.00137683 11.1138 0 -0.00309925 11.138 0 -0.00764813
11.1648 0 -0.0120614 11.1944 0 -0.0161429 11.2256 0 -0.0197019 11.2553
0 -0.0225935 11.275 0 -0.0247565 11.2598 0 -0.0262819 11.138 0
-0.0270757 10.7756 0 -0.0246482 10.1319 0 -0.0165217 9.23152 0 -0.0084635
7.72788 0 0.00407636 11.0011 0 0.00995177 11.0065 0 0.0127098 11.0152
0 0.0137578 11.0252 0 0.0128156 11.0371 0 0.0101112 11.0509 0
0.00611014 11.0668 0 0.00119903 11.0854 0 -0.00402311 11.1074 0 -0.00924501
11.1328 0 -0.0146072 11.1614 0 -0.0198441 11.1934 0 -0.0247084 11.2289
0 -0.0289568 11.2665 0 -0.0323665 11.3028 0 -0.0347754 11.3286 0
-0.0360847 11.3176 0 -0.0363022 11.1975 0 -0.0351007 10.8429 0 -0.0301985
10.2226 0 -0.0195219 9.34462 0 -0.0096594 7.84863 0 0.0035097 11.001
0 0.00878902 11.0056 0 0.0111755 11.0133 0 0.0119013 11.0224 0
0.0106685 11.0332 0 0.00757756 11.046 0 0.00298336 11.0609 0 -0.00280627
11.0787 0 -0.00941146 11.1 0 -0.0160882 11.1257 0 -0.0224424 11.1556
0 -0.0286981 11.1896 0 -0.0345508 11.2278 0 -0.0397072 11.2701 0
-0.043893 11.3149 0 -0.046875 11.3586 0 -0.0484778 11.3913 0 -0.0485797
11.3858 0 -0.0471198 11.2696 0 -0.0436003 10.9259 0 -0.0360244 10.329
0 -0.0226306 9.47109 0 -0.0108548 7.97969 0 0.00307053 11.0008 0
0.00783747 11.0048 0 0.00983598 11.0117 0 0.0102052 11.0198 0 0.00869661
11.0297 0 0.00524275 11.0414 0 8.56113e-05 11.0552 0 -0.00654945 11.072
0 -0.0143642 11.0924 0 -0.0228761 11.1173 0 -0.0311309 11.1476 0
-0.0386385 11.1831 0 -0.0457194 11.2234 0 -0.0520233 11.2687 0 -0.0572261
11.3186 0 -0.0610462 11.3715 0 -0.0632487 11.4233 0 -0.0636651 11.4637
0 -0.0621704 11.4647 0 -0.0586544 11.3545 0 -0.0525099 11.0238 0
-0.0420539 10.4494 0 -0.0257987 9.60969 0 -0.0120361 8.11981 0 0.00272398
11.0007 0 0.00705523 11.0042 0 0.0087226 11.0104 0 0.00873133 11.0177
0 0.00690468 11.0265 0 0.00312041 11.0371 0 -0.00255661 11.0498 0
-0.00998727 11.0654 0 -0.0189596 11.0847 0 -0.0290811 11.1086 0 -0.0397121
11.138 0 -0.0496316 11.1739 0 -0.0582351 11.2159 0 -0.0659737 11.2636
0 -0.0724666 11.3169 0 -0.0773842 11.3752 0 -0.0804513 11.4368 0
-0.0814562 11.4974 0 -0.0802561 11.5461 0 -0.0767445 11.5544 0 -0.0707869
11.4519 0 -0.0617214 11.1356 0 -0.0482293 10.5828 0 -0.0289886 9.75907
0 -0.0131921 8.26767 0 0.00244621 11.0006 0 0.00640952 11.0038 0
0.00780309 11.0094 0 0.00751637 11.016 0 0.00536365 11.0237 0 0.00121965
11.0332 0 -0.00492376 11.0447 0 -0.0130849 11.0589 0 -0.0231442 11.0769
0 -0.0348043 11.0995 0 -0.0475246 11.1278 0 -0.0604582 11.1627 0
-0.0720536 11.2052 0 -0.0815895 11.2549 0 -0.0897093 11.3108 0 -0.0960295
11.3729 0 -0.100233 11.4404 0 -0.10208 11.5114 0 -0.101406 11.5811
0 -0.098122 11.6385 0 -0.092171 11.6549 0 -0.0833948 11.5612 0
-0.0711283 11.2602 0 -0.0544783 10.7279 0 -0.0321645 9.91777 0 -0.0143024
8.42186 0 0.00222052 11.0006 0 0.00587235 11.0034 0 0.00703774 11.0086
0 0.00652016 11.0145 0 0.00411053 11.0214 0 -0.000382557 11.0297 0
-0.00700186 11.0398 0 -0.0158158 11.0527 0 -0.0268734 11.0691 0 -0.0399798
11.0902 0 -0.0546995 11.117 0 -0.0702896 11.1506 0 -0.0856421 11.192
0 -0.0988185 11.2423 0 -0.109002 11.3006 0 -0.117111 11.3657 0
-0.122783 11.4374 0 -0.125749 11.5147 0 -0.125835 11.5954 0 -0.122958
11.6746 0 -0.117103 11.7409 0 -0.10827 11.7657 0 -0.096338 11.6817
0 -0.0806434 11.3962 0 -0.0607213 10.8829 0 -0.0352877 10.0842 0
-0.0153556 8.58095 0 0.00203498 11.0005 0 0.00542255 11.0032 0 0.00639695
11.008 0 0.00569952 11.0133 0 0.00309939 11.0195 0 -0.0016536 11.0267
0 -0.00870598 11.0354 0 -0.0181602 11.0467 0 -0.0301116 11.0615 0
-0.0445504 11.0808 0 -0.0611547 11.1058 0 -0.0792939 11.1377 0 -0.0979649
11.1777 0 -0.115751 11.2268 0 -0.130285 11.2858 0 -0.140697 11.3538
0 -0.148275 11.429 0 -0.152718 11.5109 0 -0.153838 11.5983 0
-0.151563 11.6889 0 -0.145916 11.7776 0 -0.136987 11.8529 0 -0.124858
11.8863 0 -0.109453 11.8124 0 -0.090153 11.5422 0 -0.066884 11.0464
0 -0.0383255 10.2569 0 -0.0163537 8.74352 0 0.0018809 11.0004 0
0.00504358 11.0029 0 0.00585729 11.0074 0 0.00502084 11.0123 0 0.0022824
11.0179 0 -0.00264946 11.0242 0 -0.0100107 11.0316 0 -0.0200224 11.0412
0 -0.032832 11.0541 0 -0.0484696 11.0714 0 -0.0668174 11.0943 0
-0.0873684 11.1242 0 -0.109236 11.1623 0 -0.131102 11.2098 0 -0.151209
11.2676 0 -0.166735 11.3366 0 -0.176816 11.4151 0 -0.183212 11.501
0 -0.185731 11.5935 0 -0.184313 11.6914 0 -0.179029 11.7919 0
-0.170038 11.89 0 -0.157541 11.9741 0 -0.141734 12.0159 0 -0.122589
11.9522 0 -0.0995461 11.6966 0 -0.0729044 11.2167 0 -0.0412575 10.4342
0 -0.0172123 8.90847 0 0.00175179 11.0004 0 0.00472239 11.0027 0
0.00540019 11.0069 0 0.00445726 11.0115 0 0.00162113 11.0165 0 -0.00342675
11.022 0 -0.0109883 11.0284 0 -0.0213875 11.0364 0 -0.0349237 11.0471
0 -0.0517005 11.0621 0 -0.0716265 11.0827 0 -0.0944206 11.1102 0
-0.119327 11.1459 0 -0.145142 11.1913 0 -0.170192 11.2475 0 -0.192365
11.3151 0 -0.208354 11.395 0 -0.217377 11.4849 0 -0.221806 11.582
0 -0.221615 11.6855 0 -0.216919 11.7938 0 -0.207958 11.9041 0
-0.195048 12.0113 0 -0.178525 12.1036 0 -0.158696 12.1536 0 -0.1356
12.0997 0 -0.108723 11.8581 0 -0.0787391 11.3922 0 -0.0440154 10.6149
0 -0.018526 9.07302 0 0.00164277 11.0004 0 0.00444865 11.0026 0
0.00501068 11.0066 0 0.00398735 11.0108 0 0.00108474 11.0153 0 -0.0040311
11.0202 0 -0.0117096 11.0256 0 -0.0223512 11.0322 0 -0.0363856 11.041
0 -0.0541119 11.0533 0 -0.0755329 11.0711 0 -0.100371 11.0959 0
-0.128121 11.1288 0 -0.157709 11.1716 0 -0.187568 11.2255 0 -0.215648
11.2915 0 -0.239444 11.3701 0 -0.255184 11.4618 0 -0.262274 11.5637
0 -0.263848 11.6724 0 -0.260096 11.7869 0 -0.251346 11.9054 0
-0.238036 12.0251 0 -0.220656 12.1407 0 -0.199688 12.2408 0 -0.175548
12.2982 0 -0.148348 12.2537 0 -0.117613 12.0249 0 -0.0843173 11.5715
0 -0.047231 10.7967 0 -0.0197555 9.26689 0 0.00155006 11.0003 0
0.00421415 11.0024 0 0.00467867 11.0062 0 0.00359383 11.0102 0 0.000648603
11.0143 0 -0.00449903 11.0186 0 -0.0122315 11.0231 0 -0.0230044 11.0285
0 -0.0373449 11.0356 0 -0.0557189 11.0455 0 -0.0783767 11.0601 0
-0.105154 11.0814 0 -0.135514 11.1112 0 -0.168657 11.1508 0 -0.203142
11.2017 0 -0.236999 11.2653 0 -0.267749 11.3423 0 -0.292541 11.4329
0 -0.307148 11.5372 0 -0.3113 11.6516 0 -0.309036 11.7721 0
-0.300821 11.8974 0 -0.287225 12.0258 0 -0.268913 12.1543 0 -0.246558
12.2776 0 -0.220779 12.3846 0 -0.192103 12.4488 0 -0.160721 12.4127
0 -0.126123 12.1957 0 -0.0900231 11.7526 0 -0.0500626 11 0
-0.02008 9.46614 0 0.00147065 11.0003 0 0.00401243 11.0023 0 0.00439296
11.006 0 0.00326275 11.0096 0 0.000293052 11.0134 0 -0.00485964 11.0172
0 -0.0125995 11.021 0 -0.0234203 11.0254 0 -0.0379198 11.0309 0
-0.0566895 11.0386 0 -0.0801924 11.0502 0 -0.108572 11.0675 0 -0.141421
11.0933 0 -0.177853 11.1293 0 -0.216727 11.1767 0 -0.256177 11.2371
0 -0.293776 11.3116 0 -0.326644 11.4007 0 -0.351611 11.5041 0
-0.364039 11.6216 0 -0.36412 11.7488 0 -0.356966 11.8809 0 -0.343359
12.0167 0 -0.324144 12.1543 0 -0.300222 12.2908 0 -0.272446 12.421
0 -0.241562 12.5339 0 -0.208205 12.604 0 -0.172597 12.5756 0
-0.134457 12.3686 0 -0.0954479 11.9551 0 -0.0519102 11.2229 0 -0.0204841
9.66098 0 0.00140209 11.0003 0 0.00383831 11.0022 0 0.00414592 11.0057
0 0.00298421 11.0092 0 2.33477e-06 11.0127 0 -0.00513603 11.016 0
-0.0128494 11.0192 0 -0.023657 11.0226 0 -0.0382051 11.0267 0 -0.0571777
11.0325 0 -0.0811992 11.0414 0 -0.110681 11.055 0 -0.145593 11.076
0 -0.185184 11.1072 0 -0.228153 11.1505 0 -0.27295 11.207 0
-0.317228 11.2781 0 -0.35811 11.3648 0 -0.392336 11.467 0 -0.416459
11.584 0 -0.425497 11.7152 0 -0.420285 11.8551 0 -0.407151 11.9986
0 -0.387233 12.1443 0 -0.361671 12.2903 0 -0.331595 12.4339 0
-0.298027 12.5699 0 -0.26183 12.6877 0 -0.223694 12.7627 0 -0.184045
12.7405 0 -0.142813 12.5625 0 -0.100274 12.178 0 -0.0539335 11.442
0 -0.0209169 9.84933 0 0.00134308 11.0003 0 0.00368727 11.0021 0
0.0039326 11.0055 0 0.00274836 11.0088 0 -0.000235992 11.012 0 -0.00534653
11.015 0 -0.0130097 11.0176 0 -0.0237599 11.0202 0 -0.0382759 11.0231
0 -0.0573065 11.0272 0 -0.0815962 11.0336 0 -0.111762 11.0438 0
-0.148106 11.0603 0 -0.190334 11.0857 0 -0.237272 11.1235 0 -0.287107
11.1754 0 -0.337822 11.2424 0 -0.386582 11.3256 0 -0.43006 11.4256
0 -0.464651 11.5418 0 -0.48672 11.673 0 -0.491037 11.818 0
-0.479249 11.9704 0 -0.459043 12.1247 0 -0.43194 12.2795 0 -0.399368
12.4329 0 -0.362676 12.5825 0 -0.323036 12.7232 0 -0.281379 12.8449
0 -0.238526 12.9234 0 -0.195766 12.9256 0 -0.150745 12.7763 0
-0.104891 12.3978 0 -0.0558799 11.6547 0 -0.0212779 10.0298 0 0.00355519
11.002 0 0.0012716 11.0003 0 0.00374684 11.0053 0 0.00254758 11.0084
0 -0.000431873 11.0114 0 -0.00550562 11.014 0 -0.0131025 11.0162 0
-0.023765 11.018 0 -0.0381909 11.0199 0 -0.0571733 11.0225 0 -0.0815429
11.0267 0 -0.112072 11.0339 0 -0.14932 11.0462 0 -0.193401 11.0662
0 -0.243685 11.0972 0 -0.298452 11.1427 0 -0.355292 11.2047 0
-0.411711 11.2835 0 -0.464361 11.3801 0 -0.509495 11.4944 0 -0.543241
11.6254 0 -0.561886 11.771 0 -0.560057 11.9297 0 -0.54039 12.0943
0 -0.512057 12.2585 0 -0.476961 12.4214 0 -0.436804 12.5813 0
-0.393133 12.7356 0 -0.347219 12.8799 0 -0.300076 13.004 0 -0.253921
13.1037 0 -0.207236 13.13 0 -0.157974 12.9875 0 -0.109076 12.6121
0 -0.0575461 11.8593 0 -0.0215484 10.2019 0 0.00358218 11.0051 0
0.00339987 11.002 0 0.001185 11.0002 0 0.00237509 11.0081 0 -0.000593251
11.0109 0 -0.00562441 11.0132 0 -0.0131453 11.015 0 -0.0236999 11.0162
0 -0.037996 11.0171 0 -0.0568542 11.0183 0 -0.0811649 11.0206 0
-0.111814 11.0251 0 -0.149558 11.0336 0 -0.194834 11.0486 0 -0.247502
11.073 0 -0.306479 11.1107 0 -0.369387 11.1655 0 -0.433168 11.2389
0 -0.494818 11.331 0 -0.550496 11.4421 0 -0.5961 11.5717 0
-0.627591 11.718 0 -0.641311 11.8782 0 -0.631856 12.0502 0 -0.60303
12.2261 0 -0.565583 12.3994 0 -0.521782 12.5692 0 -0.473579 12.7342
0 -0.422655 12.8922 0 -0.370372 13.0386 0 -0.319633 13.1827 0
-0.269265 13.3029 0 -0.217572 13.332 0 -0.164445 13.1938 0 -0.112667
12.819 0 -0.0589214 12.0551 0 -0.0217209 10.3652 0 0.00222165 11.0079
0 0.00340106 11.0049 0 0.00320329 11.0018 0 0.001102 11.0002 4.29535e-19
-0.000727935 11.0105 0 -0.00571146 11.0125 0 -0.0131509 11.0139 0 -0.0235859
11.0145 0 -0.0377261 11.0147 0 -0.0564079 11.0147 0 -0.0805606 11.0152
0 -0.11115 11.0173 0 -0.149081 11.0225 0 -0.195038 11.0329 0
-0.249277 11.0512 0 -0.311301 11.0812 0 -0.379461 11.1268 0 -0.450632
11.1923 0 -0.521024 11.2788 0 -0.587149 11.3855 0 -0.644721 11.5123
0 -0.689372 11.6578 0 -0.717031 11.8196 0 -0.724232 11.9942 0
-0.705668 12.179 0 -0.666466 12.3652 0 -0.619015 12.5464 0 -0.565918
12.7219 0 -0.50931 12.8908 0 -0.450973 13.0509 0 -0.394707 13.217
0 -0.339375 13.3801 0 -0.283057 13.4999 0 -0.226816 13.5296 0
-0.17005 13.3933 0 -0.115689 13.0175 0 -0.0600239 12.2416 0 -0.0217988
10.5195 0 -0.00085058 11.0101 0 0.00207098 11.0075 0 0.00318663 11.0047
1.88051e-18 0.00301276 11.0017 -1.35996e-18 0.00102214 11.0002 -8.71734e-19 -0.00577507 11.0119 0
-0.0131291 11.0129 0 -0.023439 11.0131 0 -0.0374084 11.0125 0 -0.0558796
11.0115 0 -0.0798057 11.0105 0 -0.110206 11.0104 0 -0.148094 11.0126
0 -0.19434 11.0188 0 -0.249513 11.0317 0 -0.313591 11.0545 0
-0.385615 11.0911 0 -0.463282 11.1461 0 -0.542579 11.2239 0 -0.618962
11.3249 0 -0.688509 11.4475 0 -0.74657 11.591 0 -0.788638 11.753
0 -0.810752 11.9303 0 -0.809797 12.1188 0 -0.78068 12.3154 0
-0.729986 12.5109 0 -0.671775 12.6986 0 -0.608911 12.8785 0 -0.543663
13.0497 0 -0.480843 13.2294 0 -0.419486 13.4141 0 -0.357164 13.5754
0 -0.295378 13.6928 0 -0.234876 13.7211 0 -0.174812 13.5852 0
-0.118183 13.2072 0 -0.0608798 12.4183 0 -0.0217948 10.6644 0 -0.00583728
11.0114 0 -0.00093259 11.0096 -3.80689e-18 0.00190429 11.0071 -1.98004e-18 0.00297804 11.0044
9.54648e-19 0.00282558 11.0016 -9.19651e-19 0.000945481 11.0002 0 -0.0130884 11.0121 0
-0.0232699 11.0118 0 -0.0370625 11.0106 0 -0.0553037 11.0086 0 -0.078958
11.0063 0 -0.109081 11.0043 0 -0.146757 11.0038 0 -0.193001 11.0063
0 -0.248618 11.0142 0 -0.313966 11.0304 0 -0.388657 11.0586 0
-0.471185 11.1032 0 -0.558438 11.1692 0 -0.645435 11.2609 0 -0.726877
11.378 0 -0.798494 11.5178 0 -0.855388 11.6785 0 -0.893059 11.8573
0 -0.907828 12.0499 0 -0.897085 12.2515 0 -0.85606 12.4588 0
-0.792899 12.6621 0 -0.723316 12.855 0 -0.650353 13.0377 0 -0.580015
13.2287 0 -0.511454 13.427 0 -0.44189 13.6092 0 -0.373067 13.7668
0 -0.306167 13.8799 0 -0.241774 13.9054 0 -0.17879 13.7688 0
-0.120198 13.3874 0 -0.0615189 12.5851 0 -0.0217231 10.8002 0 -0.0130614
11.0114 0 -0.00580425 11.0107 8.01226e-18 -0.000980282 11.009 0 0.00174441 11.0067
2.00886e-18 0.00277652 11.0042 5.80118e-22 0.00264225 11.0015 0 0.000871993 11.0002 0
-0.0230879 11.0107 0 -0.036701 11.0089 0 -0.0547047 11.0061 0 -0.0780616
11.0026 0 -0.107847 10.9989 0 -0.145196 10.996 0 -0.191223 10.9953
0 -0.246914 10.9987 0 -0.312926 11.0089 0 -0.389331 11.0293 0
-0.475292 11.0642 0 -0.568606 11.1184 0 -0.665255 11.197 0 -0.759209
11.3042 0 -0.844449 11.4388 0 -0.916495 11.5967 0 -0.970341 11.7753
0 -1.00167 11.9706 0 -1.00726 12.1779 0 -0.985144 12.3917 0
-0.930984 12.6083 0 -0.854548 12.818 0 -0.773142 13.0144 0 -0.694351
13.2172 0 -0.617449 13.427 0 -0.539237 13.6227 0 -0.461946 13.8005
0 -0.387052 13.9525 0 -0.315449 14.0602 0 -0.247586 14.0819 0
-0.18205 13.9435 0 -0.121783 13.5579 0 -0.0619718 12.742 0 -0.0215964
10.9271 0 -0.0229402 11.0097 0 -0.0128624 11.0105 5.2985e-22 -0.00565188 11.01
0 -0.00102592 11.0085 -2.11405e-18 0.00159343 11.0063 4.12142e-22 0.00258223 11.0039 0
0.00246283 11.0014 0 0.000801671 11.0001 0 -0.0363334 11.0074 0 -0.054098
11.0039 0 -0.0771478 10.9993 0 -0.106561 10.9941 0 -0.143504 10.9891
0 -0.189164 10.9854 0 -0.244657 10.9848 0 -0.310871 10.9896 0
-0.388245 11.003 0 -0.476493 11.0288 0 -0.574186 11.0718 0 -0.678318
11.1372 0 -0.783864 11.2301 0 -0.88369 11.3545 0 -0.971143 11.5078
0 -1.0417 11.6846 0 -1.09044 11.8812 0 -1.11341 12.0929 0
-1.108 12.314 0 -1.07303 12.5386 0 -1.00466 12.7631 0 -0.914323
12.9773 0 -0.826205 13.1945 0 -0.739839 13.4165 0 -0.651558 13.6237
0 -0.564167 13.8147 0 -0.479641 13.9864 0 -0.399156 14.1317 0
-0.323321 14.2331 0 -0.252405 14.2502 0 -0.184664 14.109 0 -0.12299
13.7188 0 -0.0622644 12.8891 0 -0.0214258 11.0453 0 -0.0360279 11.0061
0 -0.0225143 11.0086 -4.43105e-18 -0.0124158 11.0095 0 -0.00550431 11.0092 0
-0.00105831 11.0079 6.43084e-18 0.00145128 11.0059 0 0.00239501 11.0037 0 0.00228749
11.0013 1.91633e-18 0.000734519 11.0001 0 -0.0534933 11.0019 0 -0.0762349 10.9964
0 -0.105262 10.9899 0 -0.141754 10.983 0 -0.186943 10.9767 0
-0.242044 10.9725 0 -0.308116 10.9725 0 -0.385888 10.9794 0 -0.475517
10.997 0 -0.576224 11.0296 0 -0.685883 11.0823 0 -0.800576 11.1605
0 -0.914183 11.2695 0 -1.01844 11.4126 0 -1.10621 11.5857 0
-1.17314 11.7819 0 -1.21458 11.9965 0 -1.22715 12.2237 0 -1.209
12.4574 0 -1.15985 12.6914 0 -1.07637 12.9219 0 -0.978184 13.1579
0 -0.88125 13.3949 0 -0.781424 13.6146 0 -0.682242 13.8169 0
-0.586235 14.0014 0 -0.495027 14.1658 0 -0.40949 14.3036 0 -0.329898
14.398 0 -0.256326 14.4098 0 -0.186704 14.2654 0 -0.123868 13.87
0 -0.0624223 13.0267 0 -0.0212218 11.1552 0 -0.0529873 11.0002 0
-0.0352997 11.0047 0 -0.0216559 11.0073 -4.84248e-18 -0.011986 11.0085 -4.67327e-18 -0.00533742
11.0084 -9.01429e-18 -0.00107733 11.0074 0 0.00131802 11.0056 -4.18636e-18 0.00221508 11.0035
-4.03207e-18 0.00211617 11.0012 1.94063e-18 0.000670396 11.0001 0 -0.0753334 10.9939 0
-0.103975 10.9862 0 -0.139996 10.9776 0 -0.184651 10.969 0 -0.239225
10.9616 0 -0.304908 10.9572 0 -0.382647 10.9584 0 -0.472956 10.9684
0 -0.575589 10.9914 0 -0.689169 11.0322 0 -0.810761 11.0963 0