# vtk DataFile Version 2.0
sampleSurface
ASCII
DATASET POLYDATA
POINTS 15978 float
-4.26165e-19 0.000133477 0 -4.18079e-19 -0.000798814 0 -4.33681e-19 0.001 0 -4.09379e-19 -0.00180187
0 -0.00181681 0.000361473 0 0.00181681 0.000361473 0 -0.00181396 -0.000575145 0
0.00181396 -0.000575145 0 -0.00181945 0.00123202 0 0.00181945 0.00123202 0 -0.00181089
-0.00158285 0 0.00181089 -0.00158285 0 -4.00018e-19 -0.00288105 0 -0.00180759 -0.00266704
0 0.00180759 -0.00266704 0 -0.00351565 8.15481e-05 0 0.00351565 8.15481e-05 0
-0.00351186 -0.000939823 0 0.00351186 -0.000939823 0 -0.00351918 0.00103087 0 0.00351918
0.00103087 0 -0.00352245 0.00191322 0 0.00352245 0.00191322 0 -3.89947e-19 -0.00404214
0 -0.00350777 -0.00203871 0 0.00350777 -0.00203871 0 -0.00180405 -0.00383352 0
0.00180405 -0.00383352 0 -0.00350338 -0.00322101 0 0.00350338 -0.00322101 0 -0.005
8.60602e-05 0 0.005 8.60602e-05 0 -0.005 -0.00103629 0 0.005 -0.00103629
0 -0.005 0.00112923 0 0.005 0.00112923 0 -3.79112e-19 -0.00529135 0
-0.00180023 -0.00508853 0 0.00180023 -0.00508853 0 -0.005 0.00209882 0 0.005
0.00209882 0 -0.005 -0.00224382 0 0.005 -0.00224382 0 -0.00349866 -0.00449304
0 0.00349866 -0.00449304 0 -0.005 0.003 0 0.005 0.003 0
-0.005 -0.003543 0 0.005 -0.003543 0 -0.00637208 2.82617e-05 0 0.00639053
4.25732e-05 0 -0.00637208 0.00114892 0 -0.00637208 -0.00117745 0 0.00639053 -0.00116311
0 0.00639053 0.00116321 0 -3.67455e-19 -0.00663538 0 -0.00179612 -0.00643879 0
0.00179612 -0.00643879 0 -0.00637208 0.00219052 0 0.00639053 0.00220479 0 -0.00349357
-0.00586162 0 0.00349357 -0.00586162 0 -0.00637208 -0.00247467 0 0.00639053 -0.00246031
0 -0.005 -0.00494079 0 0.005 -0.00494079 0 -0.00637208 0.00315864 0
0.00639053 0.00317289 0 -0.00637208 -0.00387036 0 0.00639053 -0.00385597 0 -0.00637208
0.00405846 0 0.00639053 0.00407269 0 -0.00778421 -7.99569e-05 0 0.00781802 -5.3679e-05
0 -0.00778421 0.00112388 0 0.00781802 0.00115011 0 -0.00778421 -0.00137517 0
0.00781802 -0.00134884 0 -3.54912e-19 -0.00808142 0 -0.0017917 -0.00789154 0 0.0017917
-0.00789154 0 -0.00778421 0.0022428 0 -0.0034881 -0.00733407 0 0.0034881 -0.00733407
0 0.00781802 0.00226899 0 -0.005 -0.00644467 0 0.005 -0.00644467 0
-0.00778421 -0.00276868 0 0.00781802 -0.0027423 0 -0.00637208 -0.00537197 0 0.00639053
-0.00535755 0 -0.00778421 0.00328278 0 0.00781802 0.00330893 0 -0.00778421 0.00424939
0 -0.00778421 -0.00426796 0 0.00781802 -0.00424152 0 0.00781802 0.00427551 0
-0.00923755 -0.000243565 0 0.00928347 -0.000207818 0 -0.00923755 0.00104957 0 -0.00778421
0.00514782 0 0.00928347 0.00108525 0 0.00781802 0.0051739 0 -0.00923755 -0.00163485
0 0.00928347 -0.00159903 0 -0.00637208 -0.00698755 0 0.00639053 -0.0069731 0
-0.005 -0.0080627 0 0.005 -0.0080627 0 -0.00923755 0.00225148 0 0.00928347
0.0022871 0 -0.00348222 -0.00891827 0 0.00348222 -0.00891827 0 -0.00178695 -0.00945455
0 0.00178695 -0.00945455 0 -3.41418e-19 -0.00963721 0 -0.00923755 -0.00313172 0
-0.00778421 -0.00588103 0 0.00781802 -0.00585453 0 0.00928347 -0.00309583 0 -0.00923755
0.0033686 0 0.00928347 0.00340416 0 -0.00923755 0.00440692 0 0.00928347 0.00444243
0 -0.00923755 -0.00474221 0 0.00928347 -0.00470623 0 -0.00923755 0.00537198 0
-0.0107333 -0.000467921 0 0.00928347 0.00540745 0 -0.0107333 0.000921062 0 0.0107879
-0.000425364 0 0.00639053 -0.00871127 0 -0.00637208 -0.00872575 0 0.0107879 0.000963535
0 -0.00778421 -0.00761653 0 0.00781802 -0.00758997 0 -0.0107333 -0.00196233 0
0.0107879 -0.00191968 0 -0.0107333 0.00221206 0 -0.005 -0.00980352 0 0.005
-0.00980352 0 0.0107879 0.00225445 0 -0.00923755 0.00626897 0 -0.00347589 -0.0106227
0 0.00347589 -0.0106227 0 0.00928347 0.00630439 0 -0.0107333 0.00341198 0
-0.00178183 -0.0111362 0 0.00178183 -0.0111362 0 -0.00923755 -0.00647493 0 0.00928347
-0.00643887 0 -3.26899e-19 -0.0113111 0 -0.0107333 -0.00357015 0 0.0107879 0.00345431
0 0.0107879 -0.00352741 0 -0.0107333 0.00452726 0 0.0107879 0.00456952 0
-0.0107333 -0.00530001 0 0.0107879 -0.00525717 0 -0.0107333 0.00556386 0 0.0107879
0.00560606 0 -0.000743369 0.0122055 0 0.000743369 0.0122055 0 -0.00778421 -0.00948375
0 0.00781802 -0.00945713 0 -0.0122727 0.000733061 0 -0.0122727 -0.000758799 0
0.0123323 -0.000712262 0 0.0123323 0.0007795 0 0.00639053 -0.0105814 0 -0.00637208
-0.0105959 0 -0.00923755 -0.00833916 0 -0.0122727 0.00211968 0 0.00928347 -0.00830301
0 -0.0122727 -0.00236389 0 0.0123323 0.00216603 0 0.0123323 -0.00231725 0
-0.0107333 0.00652734 0 0.0107879 0.00656947 0 -0.005 -0.0116765 0 0.005
-0.0116765 0 -0.0122727 0.00340848 0 0.0123323 0.00345474 0 -0.000741126 0.0128136
0 0.000741126 0.0128136 0 -0.0107333 -0.00716117 0 0.0107879 -0.00711821 0
-0.00346908 -0.0124565 0 0.00346908 -0.0124565 0 -0.0122727 -0.00409081 0 0.0123323
-0.00404405 0 -0.0107333 0.00742284 0 -0.00177633 -0.0129455 0 0.00177633 -0.0129455
0 -0.0122727 0.00460636 0 -3.11279e-19 -0.013112 0 0.0107879 0.00746492 0
-0.002 0.013 0 0.002 0.013 0 0.0123323 0.00465255 0 -0.0007387
0.0134712 0 0.0007387 0.0134712 0 -0.0122727 0.00571974 0 0.0123323 0.00576585
0 -0.0122727 -0.00594879 0 0.0123323 -0.00590191 0 -0.002 0.0135849 0
0.002 0.0135849 0 -0.0138571 0.000479853 0 -0.00923755 -0.0103449 0 0.00928347
-0.0103086 0 0.00781802 -0.011466 0 -0.00778421 -0.0114927 0 -0.0138571 -0.00112242
0 0.0139177 0.000527252 0 0.0139177 -0.00107491 0 -0.0138571 0.0019691 0
-0.0122727 0.00675458 0 0.0139177 0.00201639 0 0.0123323 0.00680062 0 -0.0107333
-0.00916358 0 0.00639053 -0.0125934 0 0.0107879 -0.0091205 0 -0.00637208 -0.012608
0 -0.0138571 -0.0028463 0 0.0139177 -0.00279868 0 -0.000736077 0.0141824 0
0.000736077 0.0141824 0 -0.00319452 0.0138829 0 0.00320133 0.0138879 0 -0.0138571
0.00335328 0 0.0139177 0.00340049 0 -0.002 0.0142174 0 0.002 0.0142174
0 -0.0122727 0.00771641 0 0.0123323 0.00776239 0 -0.005 -0.0136916 0
0.005 -0.0136916 0 -0.0138571 0.00463982 0 -0.0122727 -0.0079478 0 -0.0138571
-0.00470103 0 0.0123323 -0.00790078 0 0.0139177 -0.00465328 0 0.0139177 0.00468694
0 -0.00319452 0.0144678 0 0.00320133 0.0144728 0 -0.00346175 -0.0144295 0
0.00346175 -0.0144295 0 -0.00073324 0.0149515 0 0.00073324 0.0149515 0 -0.0122727
0.00861039 0 -0.00177041 -0.0148921 0 0.00177041 -0.0148921 0 -0.002 0.0149014
0 0.002 0.0149014 0 -0.0138571 0.0058356 0 -2.94473e-19 -0.0150496 0
0.0123323 0.00865631 0 0.0139177 0.00588264 0 -0.0138571 -0.00669653 0 0.0139177
-0.00664864 0 -0.00319452 0.0151003 0 0.00320133 0.0151053 0 -0.0154877 0.000155282
0 -0.0138571 0.00694702 0 -0.00451419 0.0148583 0 0.0045263 0.0148673 0
0.00928347 -0.0124665 0 -0.00923755 -0.0125028 0 0.0155453 0.000200444 0 -0.0154877
-0.00156548 0 0.0139177 0.00699399 0 -0.0154877 0.00175466 0 -0.0107333 -0.011318
0 0.0107879 -0.0112748 0 0.0155453 -0.00152021 0 0.0155453 0.00179972 0
0.00781802 -0.0136273 0 -0.00778421 -0.0136541 0 -0.002 0.0156411 0 0.002
0.0156411 0 -0.000730172 0.0157833 0 0.000730172 0.0157833 0 -0.0154877 0.0032412
0 -0.0154877 -0.00341685 0 0.0155453 0.00328617 0 -0.0122727 -0.0100985 0
0.0155453 -0.00337146 0 0.0123323 -0.0100514 0 -0.0138571 0.00798004 0 0.0139177
0.00802694 0 0.00639053 -0.0147581 0 -0.00637208 -0.0147727 0 -0.00451419 0.0154432
0 0.0045263 0.0154521 0 -0.00319452 0.0157843 0 0.00320133 0.0157893 0
-0.0154877 0.00462288 0 0.0155453 0.00466776 0 -0.0154877 -0.00540874 0 -0.0138571
-0.00884348 0 0.0155453 -0.00536322 0 0.0139177 -0.00879545 0 -0.0138571 0.00894019
0 -0.002 0.0164411 0 0.002 0.0164411 0 0.0139177 0.00898702 0
-0.0154877 0.00590709 0 -0.005 -0.0158596 0 0.005 -0.0158596 0 0.0155453
0.00595189 0 -0.00451419 0.0160757 0 -0.000726854 0.0166828 0 0.000726854 0.0166828
0 0.0045263 0.0160846 0 -0.00319452 0.016524 0 0.00320133 0.016529 0
-0.00345386 -0.0165523 0 0.00345386 -0.0165523 0 -0.0138571 0.0098326 0 -0.00597213
0.0159359 0 0.00598764 0.0159474 0 -0.0154877 0.00710071 0 0.0139177 0.00987937
0 -0.00176404 -0.0169864 0 0.00176404 -0.0169864 0 0.0155453 0.00714543 0
-2.76391e-19 -0.0171343 0 -0.0171658 -0.000247278 0 0.0172162 -0.000207752 0 -0.0171658
0.00147028 0 -0.0154877 -0.0075518 0 0.0155453 -0.00750615 0 0.0172162 0.00150971
0 -0.0171658 -0.00209519 0 0.0172162 -0.00205556 0 0.0107879 -0.0135925 0
-0.0107333 -0.0136359 0 -0.00451419 0.0167597 0 0.0045263 0.0167686 0 -0.002
0.0173062 0 0.002 0.0173062 0 -0.0171658 0.00306667 0 -0.0122727 -0.0124125
0 0.00928347 -0.0147881 0 0.0123323 -0.0123652 0 -0.00923755 -0.0148246 0
0.0172162 0.00310601 0 -0.0154877 0.00821012 0 -0.00597213 0.0165208 0 0.00598764
0.0165323 0 0.0155453 0.00825477 0 -0.00319452 0.017324 0 0.00320133 0.017329
0 -0.0171658 -0.00408336 0 -0.000723266 0.0176555 0 0.000723266 0.0176555 0
0.0172162 -0.00404362 0 -0.0171658 0.00455044 0 0.00781802 -0.0159527 0 -0.00778421
-0.0159796 0 -0.0138571 -0.0111534 0 0.0139177 -0.0111052 0 0.0172162 0.0045897
0 -0.0154877 0.00924127 0 -0.00451419 0.0174994 0 0.0045263 0.0175084 0
0.0155453 0.00928585 0 -0.0171658 0.00592954 0 -0.00597213 0.0171533 0 0.00598764
0.0171648 0 0.0172162 0.00596872 0 0.00639053 -0.0170872 0 -0.00637208 -0.0171018
0 -0.0171658 -0.00622243 0 0.0172162 -0.00618257 0 -0.002 0.0182418 0
0.002 0.0182418 0 -0.0154877 -0.00985753 0 0.0155453 -0.00981172 0 -0.00319452
0.0181891 0 0.00320133 0.0181941 0 -0.0154877 0.0101997 0 0.0155453 0.0102442
0 -0.0171658 0.00721136 0 0.0172162 0.00725047 0 -0.000719385 0.0187075 0
0.000719385 0.0187075 0 -0.00758282 0.0171264 0 0.00759938 0.0171387 0 -0.00597213
0.0178373 0 0.00598764 0.0178488 0 -0.00451419 0.0182994 0 0.0045263 0.0183083
0 -0.005 -0.0181922 0 0.005 -0.0181922 0 -0.018893 -0.00073496 0
-0.018893 0.0011094 0 0.0189314 -0.000704684 0 0.0189314 0.0011396 0 -0.0154877
0.0110905 0 -0.018893 -0.0027193 0 -0.018893 0.00282365 0 -0.0171658 0.00840275
0 0.0189314 -0.00268894 0 0.0155453 0.0111349 0 0.0189314 0.00285377 0
-0.00344538 -0.0188361 0 0.00344538 -0.0188361 0 -0.0171658 -0.00852385 0 0.0172162
0.00844179 0 0.0172162 -0.00848386 0 -0.00758282 0.0177113 0 0.00759938 0.0177235
0 -0.0122727 -0.0149021 0 0.0123323 -0.0148546 0 -0.00175719 -0.0192397 0
[...]
CELL_DATA 15677
FIELD attributes 1
U 3 15677 float
-0.304871 10.2652 0 0.190476 10.9192 0 -0.101143 9.44667 0 0.0315568 10.9901
0 0.118846 10.7323 0 -0.0119269 8.75834 0 0.045528 11.0075 0
0.0144853 10.9815 0 0.0577139 10.4719 0 0.0115309 8.22931 0 0.0466953
11.0122 0 0.043392 11.0311 0 0.0260945 10.9286 0 0.0319088 10.1907
0 0.0113238 7.85608 0 0.0440125 11.0135 0 0.0424082 11.0439 0
0.0428102 11.0209 0 0.0332399 10.8603 0 0.0213725 9.90289 0 0.00644213
7.61189 0 0.0413775 11.0136 0 0.0404499 11.0462 0 0.0402126 11.0448
0 0.0398979 11.0049 0 0.0328267 10.7692 0 0.0159541 9.63754 0
0.00250597 7.45869 0 0.0386369 11.0131 0 0.0389935 11.0453 0 0.0393892
11.0533 0 0.0385089 11.0445 0 0.035856 10.9826 0 0.0288624 10.6571
0 0.0121647 9.41239 0 0.000563872 7.36217 0 0.0356117 11.0123 0
0.0373787 11.0435 0 0.0387219 11.056 0 0.0384583 11.0587 0 0.0360604
11.0421 0 0.0318489 10.9528 0 0.0240843 10.5326 0 0.00902406 9.23739
0 1.73107e-05 7.30002 0 0.0323302 11.0113 0 0.0354697 11.0411 0
0.0376342 11.0557 0 0.0378996 11.064 0 0.0361312 11.0633 0 0.0329275
11.0364 0 0.0284289 10.9173 0 0.0194942 10.398 0 0.00646269 9.10662
0 -0.000236496 7.25743 0 0.0288545 11.0101 0 0.0333397 11.0382 0
0.0362384 11.054 0 0.0369562 11.0652 0 0.0355748 11.0717 0 0.0329776
11.0662 0 0.0298328 11.0289 0 0.025424 10.8758 0 0.0154686 10.2693
0 0.00440863 9.01174 0 -0.00046711 7.23293 0 0.0252624 11.0089 0
0.0310118 11.0348 0 0.0345835 11.0514 0 0.0357405 11.0644 0 0.0346683
11.0746 0 0.0324277 11.0784 0 0.0297921 11.0687 0 0.0268458 11.0212
0 0.0222184 10.8305 0 0.0118475 10.1592 0 0.00266815 8.94581 0
-0.000671063 7.22138 0 0.0215477 11.0077 0 0.0284912 11.0312 0 0.0326617
11.0481 0 0.0342601 11.0622 0 0.0334734 11.0746 0 0.0314858 11.0832
0 0.029135 11.0852 0 0.0266467 11.0724 0 0.0235592 11.0143 0
0.0185234 10.7845 0 0.00845302 10.0704 0 0.00110238 8.90375 0 -0.00108681
7.22337 0 0.017842 11.0065 0 0.0258851 11.0273 0 0.0304588 11.0442
0 0.032499 11.0592 0 0.0319938 11.073 0 0.0302064 11.0844 0
0.0280063 11.0923 0 0.025729 11.0937 0 0.0231621 11.0783 0 0.0198733
11.0089 0 0.0144032 10.7409 0 0.00514462 10.0052 0 -0.000540088 8.88276
0 -0.00170735 7.23865 0 0.0146452 11.0053 0 0.0232016 11.0233 0
0.0280027 11.0398 0 0.0304395 11.0553 0 0.030221 11.0703 0 0.0286053
11.0834 0 0.0264767 11.0947 0 0.0242412 11.1032 0 0.0218379 11.1049
0 0.0191405 11.0873 0 0.0156832 11.0061 0 0.00992772 10.705 0
0.0016713 9.96266 0 -0.00221111 8.88085 0 -0.00237436 7.26759 0 0.0120654
11.0043 0 0.0206592 11.0196 0 0.0253277 11.0351 0 0.0280684 11.0508
0 0.0281386 11.0666 0 0.0266779 11.0811 0 0.0245717 11.0945 0
0.0222756 11.1069 0 0.0198332 11.1169 0 0.0172401 11.1195 0 0.014397
11.1003 0 0.0107855 11.0076 0 0.00504022 10.6799 0 -0.00191005 9.94193
0 -0.00410085 8.89727 0 -0.00320074 7.31032 0 0.00991057 11.0034 0
0.0183955 11.0164 0 0.0227304 11.0306 0 0.0253907 11.0456 0 0.0257269
11.062 0 0.0244074 11.0776 0 0.0222889 11.0925 0 0.019861 11.1074
0 0.0172556 11.1219 0 0.0145422 11.1341 0 0.0117464 11.1385 0
0.0087466 11.1182 0 0.00508742 11.0152 0 -0.000322396 10.6681 0 -0.00577487
9.94195 0 -0.00618983 8.93098 0 -0.00411767 7.36703 0 0.00824433 11.0027
0 0.0163779 11.0136 0 0.0203833 11.0266 0 0.0227164 11.0406 0
0.0229752 11.0566 0 0.0217726 11.073 0 0.0196125 11.0892 0 0.0169951
11.1058 0 0.0141322 11.1231 0 0.0111521 11.1405 0 0.00815378 11.1557
0 0.00515497 11.1626 0 0.00207717 11.142 0 -0.00144616 11.0306 0
-0.00618902 10.6709 0 -0.00996378 9.96179 0 -0.00848992 8.98194 0 -0.00511538
7.43752 0 0.0068601 11.0021 0 0.0144732 11.0112 0 0.0182227 11.0231
0 0.0202464 11.0361 0 0.0201865 11.0511 0 0.0187588 11.0675 0
0.0165227 11.0847 0 0.0136634 11.1027 0 0.0104583 11.1218 0 0.00709363
11.1423 0 0.00371987 11.1634 0 0.000438586 11.1826 0 -0.00269067 11.1929
0 -0.00569358 11.1728 0 -0.00883656 11.0554 0 -0.0125975 10.6895 0
-0.0145098 10.0005 0 -0.0109857 9.04936 0 -0.00618116 7.52159 0 0.00572415
11.0017 0 0.0127894 11.0093 0 0.0162082 11.02 0 0.0179215 11.0321
0 0.0175819 11.0461 0 0.0156927 11.0617 0 0.0130063 11.079 0
0.00984973 11.0981 0 0.00621848 11.1187 0 0.00235698 11.1412 0 -0.00153454
11.1658 0 -0.00529917 11.1915 0 -0.0087942 11.2155 0 -0.0119101 11.23
0 -0.0146214 11.2117 0 -0.0171124 11.0908 0 -0.0195628 10.7243 0
-0.0194099 10.0574 0 -0.0136702 9.13276 0 -0.00729652 7.61857 0 0.00479154
11.0014 0 0.0112686 11.0078 0 0.014354 11.0174 0 0.015746 11.0284
0 0.0151128 11.0414 0 0.0128248 11.0562 0 0.00944282 11.0729 0
0.00554671 11.0921 0 0.00139935 11.1139 0 -0.00307653 11.138 0 -0.00762711
11.1649 0 -0.012043 11.1944 0 -0.0161274 11.2256 0 -0.019689 11.2553
0 -0.0225828 11.275 0 -0.0247477 11.2597 0 -0.0262748 11.1379 0
-0.0270705 10.7754 0 -0.0246446 10.1317 0 -0.0165199 9.23136 0 -0.00846229
7.72779 0 0.00405151 11.0011 0 0.00990288 11.0065 0 0.0126661 11.0152
0 0.0137244 11.0252 0 0.0127981 11.0371 0 0.0101101 11.0509 0
0.00612252 11.0668 0 0.0012204 11.0854 0 -0.0039975 11.1075 0 -0.00921897
11.1328 0 -0.014583 11.1614 0 -0.0198228 11.1935 0 -0.0246903 11.2289
0 -0.0289416 11.2665 0 -0.0323538 11.3028 0 -0.0347645 11.3285 0
-0.0360754 11.3175 0 -0.0362943 11.1973 0 -0.0350945 10.8427 0 -0.030194
10.2224 0 -0.0195195 9.34443 0 -0.00965794 7.84853 0 0.00348392 11.001
0 0.00873743 11.0056 0 0.0111292 11.0133 0 0.0118656 11.0224 0
0.010649 11.0333 0 0.00757552 11.046 0 0.00299616 11.0609 0 -0.00278313
11.0787 0 -0.00938287 11.1001 0 -0.0160585 11.1257 0 -0.0224146 11.1557
0 -0.0286735 11.1896 0 -0.0345298 11.2278 0 -0.0396895 11.2701 0
-0.0438781 11.3149 0 -0.0468622 11.3586 0 -0.0484664 11.3913 0 -0.0485694
11.3857 0 -0.0471107 11.2695 0 -0.0435929 10.9257 0 -0.0360186 10.3287
0 -0.0226275 9.47088 0 -0.010853 7.97957 0 0.00304392 11.0008 0
0.00778371 11.0048 0 0.0097874 11.0117 0 0.0101671 11.0199 0 0.0086753
11.0297 0 0.00523975 11.0414 0 9.86802e-05 11.0553 0 -0.00652477 11.072
0 -0.014333 11.0925 0 -0.0228429 11.1174 0 -0.0310992 11.1476 0
-0.0386102 11.1831 0 -0.0456952 11.2234 0 -0.0520028 11.2687 0 -0.0572087
11.3186 0 -0.0610312 11.3715 0 -0.0632351 11.4233 0 -0.0636525 11.4637
0 -0.0621586 11.4646 0 -0.0586437 11.3544 0 -0.0525008 11.0235 0
-0.0420468 10.4492 0 -0.0257946 9.60946 0 -0.0120339 8.11967 0 0.00269664
11.0007 0 0.00699947 11.0043 0 0.00867194 11.0104 0 0.00869104 11.0177
0 0.00688162 11.0266 0 0.00311654 11.0372 0 -0.00254336 11.0499 0
-0.00996124 11.0654 0 -0.018926 11.0847 0 -0.0290446 11.1086 0 -0.0396764
11.138 0 -0.0495993 11.1739 0 -0.0582073 11.2159 0 -0.0659501 11.2636
0 -0.0724466 11.3169 0 -0.0773667 11.3752 0 -0.0804356 11.4368 0
-0.0814414 11.4973 0 -0.0802419 11.546 0 -0.0767306 11.5543 0 -0.070774
11.4517 0 -0.0617102 11.1354 0 -0.0482205 10.5826 0 -0.0289835 9.75881
0 -0.0131894 8.2675 0 0.00241823 11.0006 0 0.00635204 11.0038 0
0.00775067 11.0095 0 0.00747414 11.016 0 0.00533908 11.0238 0 0.001215
11.0332 0 -0.00491031 11.0447 0 -0.0130577 11.059 0 -0.0231083 11.0769
0 -0.0347648 11.0995 0 -0.0474854 11.1278 0 -0.060422 11.1627 0
-0.0720219 11.2052 0 -0.0815626 11.2549 0 -0.0896864 11.3108 0 -0.0960095
11.3729 0 -0.100215 11.4404 0 -0.102063 11.5113 0 -0.101389 11.581
0 -0.0981053 11.6385 0 -0.0921545 11.6548 0 -0.0833792 11.561 0
-0.0711147 11.2599 0 -0.0544674 10.7276 0 -0.0321581 9.91747 0 -0.0142991
8.42166 0 0.00219198 11.0006 0 0.00581335 11.0035 0 0.0069838 11.0086
0 0.00647627 11.0146 0 0.00408464 11.0215 0 -0.000387854 11.0297 0
-0.00698819 11.0399 0 -0.0157874 11.0527 0 -0.0268354 11.0692 0 -0.0399374
11.0902 0 -0.054657 11.117 0 -0.0702498 11.1506 0 -0.0856066 11.192
0 -0.0987879 11.2423 0 -0.108976 11.3006 0 -0.117088 11.3657 0
-0.122763 11.4374 0 -0.12573 11.5147 0 -0.125816 11.5953 0 -0.122938
11.6745 0 -0.117083 11.7408 0 -0.10825 11.7656 0 -0.096319 11.6815
0 -0.0806266 11.3959 0 -0.0607079 10.8826 0 -0.0352797 10.0839 0
-0.0153516 8.58071 0 0.00200594 11.0005 0 0.00536224 11.0032 0 0.00634171
11.008 0 0.00565421 11.0134 0 0.00307239 11.0195 0 -0.00165944 11.0267
0 -0.00869204 11.0355 0 -0.0181306 11.0468 0 -0.0300717 11.0615 0
-0.0445054 11.0808 0 -0.061109 11.1058 0 -0.0792506 11.1377 0 -0.0979259
11.1778 0 -0.115717 11.2268 0 -0.130255 11.2858 0 -0.140671 11.3538
0 -0.148251 11.4289 0 -0.152695 11.5108 0 -0.153815 11.5983 0
-0.15154 11.6888 0 -0.145892 11.7775 0 -0.136963 11.8528 0 -0.124834
11.8862 0 -0.10943 11.8122 0 -0.0901326 11.5418 0 -0.0668678 11.046
0 -0.0383158 10.2566 0 -0.0163489 8.74323 0 0.00185141 11.0004 0
0.00498212 11.0029 0 0.00580095 11.0074 0 0.00497431 11.0124 0 0.00225446
11.0179 0 -0.00265576 11.0242 0 -0.00999654 11.0317 0 -0.0199917 11.0412
0 -0.0327901 11.0541 0 -0.048422 11.0714 0 -0.0667687 11.0943 0
-0.0873219 11.1242 0 -0.109193 11.1623 0 -0.131065 11.2098 0 -0.151176
11.2676 0 -0.166706 11.3365 0 -0.17679 11.4151 0 -0.183187 11.5009
0 -0.185705 11.5935 0 -0.184287 11.6913 0 -0.179002 11.7918 0
-0.170009 11.8899 0 -0.157512 11.9739 0 -0.141705 12.0157 0 -0.122561
11.9519 0 -0.0995216 11.6963 0 -0.0728847 11.2163 0 -0.0412458 10.4338
0 -0.0172065 8.90813 0 0.00172191 11.0004 0 0.00465995 11.0027 0
0.00534292 11.007 0 0.00440969 11.0115 0 0.00159237 11.0165 0 -0.00343343
11.0221 0 -0.0109739 11.0284 0 -0.0213558 11.0364 0 -0.0348801 11.0471
0 -0.0516506 11.0621 0 -0.071575 11.0828 0 -0.0943709 11.1102 0
-0.119281 11.1459 0 -0.145101 11.1913 0 -0.170156 11.2475 0 -0.192332
11.3151 0 -0.208324 11.395 0 -0.217348 11.4849 0 -0.221777 11.582
0 -0.221585 11.6855 0 -0.216887 11.7937 0 -0.207924 11.904 0
-0.195013 12.0111 0 -0.17849 12.1035 0 -0.158661 12.1534 0 -0.135567
12.0994 0 -0.108694 11.8577 0 -0.0787156 11.3917 0 -0.0440013 10.6144
0 -0.018519 9.07263 0 0.00161255 11.0004 0 0.00438535 11.0026 0
0.00495265 11.0066 0 0.0039389 11.0108 0 0.00105528 11.0153 0 -0.00403811
11.0202 0 -0.011695 11.0256 0 -0.0223186 11.0322 0 -0.0363404 11.041
0 -0.0540597 11.0534 0 -0.0754787 11.0711 0 -0.100319 11.0959 0
-0.128072 11.1288 0 -0.157666 11.1716 0 -0.187529 11.2255 0 -0.215613
11.2915 0 -0.239411 11.37 0 -0.255152 11.4617 0 -0.262242 11.5636
0 -0.263814 11.6723 0 -0.26006 11.7868 0 -0.251307 11.9053 0
-0.237995 12.025 0 -0.220614 12.1406 0 -0.199645 12.2406 0 -0.175506
12.298 0 -0.148308 12.2533 0 -0.117578 12.0244 0 -0.0842894 11.571
0 -0.0472141 10.7962 0 -0.0197469 9.26643 0 0.00151953 11.0003 0
0.00415011 11.0024 0 0.00461979 11.0063 0 0.00354464 11.0102 0 0.000618518
11.0143 0 -0.00450634 11.0186 0 -0.0122167 11.0232 0 -0.0229711 11.0286
0 -0.0372984 11.0356 0 -0.0556648 11.0456 0 -0.0783201 11.0601 0
-0.105099 11.0814 0 -0.135463 11.1112 0 -0.168611 11.1508 0 -0.203101
11.2017 0 -0.236962 11.2653 0 -0.267714 11.3423 0 -0.292506 11.4328
0 -0.307112 11.5372 0 -0.311261 11.6515 0 -0.308995 11.772 0
-0.300777 11.8973 0 -0.287178 12.0257 0 -0.268863 12.1541 0 -0.246506
12.2775 0 -0.220727 12.3844 0 -0.192052 12.4485 0 -0.160674 12.4123
0 -0.126081 12.1952 0 -0.0899901 11.752 0 -0.0500422 10.9993 0
-0.0200699 9.46559 0 0.00143986 11.0003 0 0.00394774 11.0023 0 0.00433364
11.006 0 0.00321294 11.0097 0 0.000262415 11.0134 0 -0.00486721 11.0172
0 -0.0125845 11.0211 0 -0.0233864 11.0254 0 -0.0378721 11.0309 0
-0.0566338 11.0387 0 -0.0801337 11.0502 0 -0.108515 11.0676 0 -0.141367
11.0933 0 -0.177805 11.1293 0 -0.216683 11.1767 0 -0.256137 11.2371
0 -0.293739 11.3116 0 -0.326607 11.4007 0 -0.351572 11.504 0
-0.363996 11.6216 0 -0.364074 11.7487 0 -0.356915 11.8808 0 -0.343304
12.0166 0 -0.324085 12.1542 0 -0.300161 12.2907 0 -0.272383 12.4208
0 -0.241499 12.5337 0 -0.208144 12.6037 0 -0.172541 12.5751 0
-0.134408 12.3681 0 -0.0954086 11.9544 0 -0.051886 11.2222 0 -0.0204723
9.66033 0 0.00137108 11.0003 0 0.00377305 11.0022 0 0.00408612 11.0057
0 0.00293373 11.0092 0 -2.8792e-05 11.0127 0 -0.00514384 11.016 0
-0.0128343 11.0192 0 -0.0236224 11.0226 0 -0.0381564 11.0268 0 -0.0571205
11.0326 0 -0.0811387 11.0414 0 -0.110621 11.055 0 -0.145537 11.076
0 -0.185133 11.1072 0 -0.228108 11.1505 0 -0.272909 11.207 0
-0.31719 11.2781 0 -0.358071 11.3648 0 -0.392295 11.467 0 -0.416413
11.584 0 -0.425446 11.7152 0 -0.420228 11.8551 0 -0.407088 11.9985
0 -0.387165 12.1442 0 -0.361599 12.2902 0 -0.331521 12.4337 0
-0.297951 12.5697 0 -0.261755 12.6874 0 -0.223623 12.7623 0 -0.183979
12.74 0 -0.142756 12.5618 0 -0.100227 12.1773 0 -0.0539051 11.4411
0 -0.0209034 9.84856 0 0.00131186 11.0003 0 0.00362149 11.0021 0
0.00387229 11.0055 0 0.00269744 11.0088 0 -0.000267568 11.012 0 -0.00535456
11.015 0 -0.0129944 11.0176 0 -0.0237249 11.0202 0 -0.0382263 11.0231
0 -0.057248 11.0272 0 -0.0815342 11.0336 0 -0.111701 11.0439 0
-0.148048 11.0603 0 -0.190282 11.0858 0 -0.237225 11.1235 0 -0.287064
11.1754 0 -0.337782 11.2424 0 -0.386542 11.3256 0 -0.430017 11.4256
0 -0.464603 11.5418 0 -0.486665 11.6729 0 -0.490974 11.8179 0
-0.479178 11.9703 0 -0.458966 12.1246 0 -0.431857 12.2793 0 -0.39928
12.4328 0 -0.362585 12.5823 0 -0.322945 12.723 0 -0.28129 12.8446
0 -0.238442 12.923 0 -0.195688 12.9251 0 -0.150676 12.7756 0
-0.104836 12.3969 0 -0.0558466 11.6537 0 -0.0212624 10.0289 0 0.00348895
11.0021 0 0.0012402 11.0003 0 0.0036861 11.0053 0 0.00249624 11.0085
0 -0.000463835 11.0115 0 -0.00551383 11.0141 0 -0.0130872 11.0162 0
-0.0237296 11.0181 0 -0.0381406 11.02 0 -0.0571138 11.0225 0 -0.0814795
11.0267 0 -0.112009 11.0339 0 -0.149261 11.0462 0 -0.193347 11.0662
0 -0.243637 11.0972 0 -0.298409 11.1427 0 -0.355252 11.2047 0
-0.411671 11.2835 0 -0.464318 11.3801 0 -0.509446 11.4944 0 -0.543183
11.6254 0 -0.561818 11.771 0 -0.559978 11.9297 0 -0.540302 12.0942
0 -0.511961 12.2584 0 -0.476859 12.4212 0 -0.436698 12.5811 0
-0.393025 12.7354 0 -0.347112 12.8797 0 -0.299972 13.0037 0 -0.253821
13.1033 0 -0.207143 13.1294 0 -0.157893 12.9867 0 -0.109012 12.6111
0 -0.0575076 11.8582 0 -0.0215308 10.2009 0 0.00352103 11.0052 0
0.00333311 11.002 0 0.00115344 11.0002 0 0.00232338 11.0082 0 -0.000625554
11.011 0 -0.00563279 11.0133 0 -0.0131298 11.015 0 -0.0236641 11.0162
0 -0.037945 11.0172 0 -0.0567938 11.0184 0 -0.0811005 11.0206 0
-0.111749 11.0251 0 -0.149498 11.0337 0 -0.194779 11.0486 0 -0.247453
11.073 0 -0.306435 11.1107 0 -0.369347 11.1655 0 -0.433128 11.2389
0 -0.494775 11.331 0 -0.550447 11.4421 0 -0.596041 11.5717 0
-0.62752 11.7179 0 -0.641227 11.8781 0 -0.631759 12.0501 0 -0.602922
12.226 0 -0.565465 12.3993 0 -0.521658 12.569 0 -0.473451 12.734
0 -0.422527 12.8919 0 -0.370246 13.0383 0 -0.319509 13.1823 0
-0.269146 13.3024 0 -0.217463 13.3313 0 -0.164351 13.1928 0 -0.112594
12.8178 0 -0.0588773 12.0539 0 -0.0217011 10.3641 0 0.00216961 11.0079
0 0.00333944 11.0049 0 0.0031359 11.0019 0 0.0010703 11.0002 4.29294e-19
-0.000760553 11.0105 0 -0.00571999 11.0126 0 -0.0131355 11.0139 0 -0.0235498
11.0146 0 -0.0376746 11.0147 0 -0.0563467 11.0147 0 -0.0804952 11.0152
0 -0.111085 11.0173 0 -0.149019 11.0225 0 -0.194982 11.0329 0
-0.249228 11.0513 0 -0.311257 11.0812 0 -0.379421 11.1268 0 -0.450593
11.1923 0 -0.520983 11.2788 0 -0.587101 11.3855 0 -0.644662 11.5123
0 -0.6893 11.6578 0 -0.716943 11.8196 0 -0.724127 11.9942 0
-0.705547 12.1789 0 -0.666333 12.3651 0 -0.618873 12.5462 0 -0.565769
12.7217 0 -0.509158 12.8905 0 -0.450822 13.0506 0 -0.394556 13.2166
0 -0.339228 13.3796 0 -0.282918 13.4993 0 -0.226689 13.5288 0
-0.169942 13.3923 0 -0.115604 13.0163 0 -0.059974 12.2402 0 -0.0217768
10.5182 0 -0.000883472 11.0101 0 0.00201854 11.0075 0 0.00312433 11.0047
1.87945e-18 0.00294476 11.0017 -1.3592e-18 0.000990323 11.0002 -8.71247e-19 -0.00578376 11.012 0
-0.0131135 11.013 0 -0.0234026 11.0131 0 -0.0373564 11.0125 0 -0.0558177
11.0115 0 -0.0797394 11.0105 0 -0.11014 11.0104 0 -0.148031 11.0126
0 -0.194284 11.0188 0 -0.249463 11.0317 0 -0.313548 11.0545 0
-0.385576 11.0911 0 -0.463244 11.1461 0 -0.542539 11.2239 0 -0.618916
11.3249 0 -0.688452 11.4475 0 -0.746498 11.591 0 -0.788548 11.753
0 -0.810642 11.9303 0 -0.809666 12.1188 0 -0.780532 12.3153 0
-0.729824 12.5107 0 -0.671604 12.6984 0 -0.608733 12.8782 0 -0.543484
13.0494 0 -0.480663 13.2291 0 -0.419306 13.4136 0 -0.35699 13.5748
0 -0.295215 13.6921 0 -0.23473 13.7202 0 -0.174688 13.5841 0
-0.118088 13.2058 0 -0.0608236 12.4168 0 -0.0217705 10.663 0 -0.0058461
11.0114 0 -0.000965837 11.0096 -3.80469e-18 0.00185103 11.0071 -1.97892e-18 0.00291506 11.0044
9.54114e-19 0.00275695 11.0016 -9.19137e-19 0.000913578 11.0002 0 -0.0130728 11.0121 0
-0.0232333 11.0119 0 -0.03701 11.0106 0 -0.0552412 11.0086 0 -0.078891
11.0063 0 -0.109014 11.0043 0 -0.146694 11.0038 0 -0.192944 11.0063
0 -0.248568 11.0142 0 -0.313923 11.0304 0 -0.388619 11.0586 0
-0.471149 11.1033 0 -0.558401 11.1692 0 -0.645392 11.2609 0 -0.726823
11.378 0 -0.798425 11.5178 0 -0.855299 11.6785 0 -0.892947 11.8573
0 -0.907692 12.0498 0 -0.896925 12.2514 0 -0.85588 12.4587 0
-0.792704 12.6619 0 -0.723112 12.8548 0 -0.650144 13.0374 0 -0.579801
13.2283 0 -0.511238 13.4265 0 -0.441678 13.6087 0 -0.372864 13.7661
0 -0.30598 13.8791 0 -0.241607 13.9044 0 -0.17865 13.7675 0
-0.120091 13.3859 0 -0.0614563 12.5834 0 -0.0216965 10.7987 0 -0.0130459
11.0114 0 -0.00581325 11.0108 8.00763e-18 -0.00101452 11.0091 0 0.00169038 11.0067
2.00773e-18 0.00271282 11.0042 5.84351e-22 0.00257302 11.0015 0 0.000840049 11.0002 0
-0.0230511 11.0107 0 -0.0366481 11.009 0 -0.0546417 11.0061 0 -0.077994
11.0026 0 -0.107779 10.9989 0 -0.145132 10.996 0 -0.191166 10.9953
0 -0.246864 10.9987 0 -0.312883 11.0089 0 -0.389294 11.0293 0
-0.475258 11.0642 0 -0.568572 11.1184 0 -0.665216 11.197 0 -0.759159
11.3042 0 -0.844384 11.4388 0 -0.916409 11.5967 0 -0.97023 11.7753
0 -1.00153 11.9706 0 -1.00709 12.1779 0 -0.984949 12.3916 0
-0.930766 12.6082 0 -0.854315 12.8178 0 -0.7729 13.0141 0 -0.694101
13.2169 0 -0.617193 13.4266 0 -0.538982 13.6221 0 -0.461699 13.7999
0 -0.386818 13.9517 0 -0.315235 14.0593 0 -0.247398 14.0808 0
-0.181894 13.942 0 -0.121664 13.5563 0 -0.0619025 12.7402 0 -0.0215675
10.9254 0 -0.0229033 11.0098 0 -0.0128468 11.0105 5.06165e-22 -0.0056619 11.01
0 -0.00106103 11.0085 -2.11284e-18 0.00153862 11.0063 4.17621e-22 0.00251781 11.004 0
0.00239302 11.0014 0 0.00076973 11.0001 0 -0.0362803 11.0075 0 -0.0540344
11.0039 0 -0.0770796 10.9993 0 -0.106492 10.9941 0 -0.14344 10.9891
0 -0.189106 10.9854 0 -0.244607 10.9848 0 -0.310828 10.9896 0
-0.388209 11.003 0 -0.476461 11.0289 0 -0.574154 11.0719 0 -0.678283
11.1372 0 -0.78382 11.2301 0 -0.883631 11.3545 0 -0.971063 11.5079
0 -1.0416 11.6846 0 -1.09031 11.8812 0 -1.11324 12.0929 0
-1.1078 12.3139 0 -1.0728 12.5385 0 -1.0044 12.7629 0 -0.914047
12.9771 0 -0.825916 13.1942 0 -0.739539 13.4161 0 -0.651255 13.6232
0 -0.563869 13.8141 0 -0.479355 13.9856 0 -0.398889 14.1308 0
-0.323078 14.232 0 -0.252193 14.2489 0 -0.18449 14.1075 0 -0.122859
13.717 0 -0.0621885 12.8871 0 -0.0213946 11.0434 0 -0.0359747 11.0062
0 -0.0224771 11.0086 -4.42847e-18 -0.0124011 11.0095 0 -0.00551519 11.0092 0
-0.0010943 11.0079 6.42716e-18 0.00139565 11.0059 0 0.00232984 11.0037 0 0.00221712
11.0013 1.91527e-18 0.000702619 11.0001 0 -0.0534295 11.002 0 -0.0761662 10.9964
0 -0.105194 10.9899 0 -0.141689 10.983 0 -0.186884 10.9767 0
-0.241993 10.9725 0 -0.308074 10.9725 0 -0.385853 10.9794 0 -0.475487
10.997 0 -0.576196 11.0296 0 -0.685853 11.0823 0 -0.800538 11.1605
0 -0.914131 11.2695 0 -1.01837 11.4126 0 -1.10611 11.5858 0
-1.17301 11.7819 0 -1.21441 11.9965 0 -1.22694 12.2237 0 -1.20875
12.4573 0 -1.15956 12.6913 0 -1.07606 12.9217 0 -0.977855 13.1576
0 -0.880902 13.3946 0 -0.781068 13.6141 0 -0.681887 13.8163 0
-0.58589 14.0007 0 -0.4947 14.165 0 -0.409187 14.3026 0 -0.329627
14.3968 0 -0.256092 14.4084 0 -0.186512 14.2637 0 -0.123724 13.868
0 -0.0623395 13.0246 0 -0.0211883 11.1532 0 -0.0529233 11.0002 0
-0.0352458 11.0047 0 -0.0216195 11.0073 -4.83964e-18 -0.011972 11.0085 -4.67055e-18 -0.00534916
11.0085 -9.00911e-18 -0.00111423 11.0074 0 0.00126154 11.0056 -4.184e-18 0.00214913 11.0035
-4.02982e-18 0.00204529 11.0012 1.93956e-18 0.000638555 11.0001 0 -0.0752644 10.9939 0
-0.103905 10.9862 0 -0.139931 10.9776 0 -0.184593 10.969 0 -0.239174
10.9616 0 -0.304866 10.9572 0 -0.382613 10.9584 0 -0.472928 10.9684
0 -0.575564 10.9914 0 -0.689143 11.0322 0 -0.810729 11.0963 0