#           x             T
    -0.118947       349.842
    -0.118121       349.838
    -0.117174       349.832
    -0.116087       349.827
     -0.11484       349.823
    -0.113408        349.82
    -0.111764       349.818
    -0.109877       349.817
    -0.107712       349.815
    -0.105227       349.814
    -0.102374       349.813
   -0.0990995       349.813
   -0.0953416       349.814
   -0.0914285       349.819
   -0.0876191       349.831
   -0.0838095       349.859
        -0.08       349.919
   -0.0761904       350.044
   -0.0723809       350.306
   -0.0685715       350.851
   -0.0649271       351.907
    -0.061624       353.761
    -0.058655       356.714
   -0.0559862       360.936
   -0.0535874       366.328
   -0.0514313       372.513
   -0.0494932       378.883
   -0.0477512       384.725
   -0.0461853        389.47
   -0.0447779       392.913
   -0.0435128       395.171
   -0.0423757       396.492
   -0.0413536       397.109
   -0.0404349       397.251
     -0.03925       396.959
     -0.03775       396.187
     -0.03625       395.229
     -0.03475       394.335
     -0.03325       393.599
     -0.03175       393.039
     -0.03025       392.642
     -0.02875       392.383
     -0.02725       392.229
     -0.02575       392.155
   -0.0243994       392.133
   -0.0231362       392.139
    -0.021743       392.164
   -0.0202065       392.204
   -0.0189203       392.237
   -0.0180315       392.258
   -0.0166427       392.286
   -0.0145812       392.315
    -0.012414       392.322
   -0.0110231       392.318
   -0.0100402       392.312
  -0.00847254       392.297
  -0.00677747       392.279
  -0.00524316       392.264
  -0.00385435       392.254
  -0.00288618       392.252
  -0.00228892       392.253
  -0.00133333       392.258
            0       392.276
   0.00133333       392.308
     0.002289       392.341
   0.00288966       392.368
   0.00386381       392.419
   0.00525697        392.51
   0.00679351       392.636
    0.0084882       392.805
    0.0100473       392.996
    0.0110276       393.126
    0.0124188       393.324
    0.0145859        393.67
    0.0166548       393.995
    0.0180384       394.204
    0.0189282       394.334
    0.0202225       394.509
    0.0217568       394.697
    0.0231456       394.841
    0.0244027       394.982
      0.02575       395.187
      0.02725       395.487
      0.02875       395.915
      0.03025       396.469
      0.03175       397.037
      0.03325       397.428
      0.03475       397.528
      0.03625       397.137
      0.03775       396.163
      0.03925       394.645
    0.0404349       392.915
    0.0413536       391.142
    0.0423757       388.965
    0.0435128       386.182
    0.0447779       382.735
    0.0461853       378.652
    0.0477511       374.086
    0.0494932       369.302
    0.0514312       364.633
    0.0535874       360.407
    0.0559862       356.894
    0.0586549        354.23
     0.061624       352.388
    0.0649271       351.218
    0.0685714       350.535
    0.0723809       350.171
    0.0761904        349.99
         0.08       349.901
    0.0838095       349.857
     0.087619       349.836
    0.0914285       349.827
    0.0953419       349.823
    0.0991002       349.822
     0.102374       349.822
     0.105227       349.823
     0.107713       349.824
     0.109878       349.825
     0.111765       349.827
     0.113408       349.829
      0.11484       349.831
     0.116088       349.835
     0.117175        349.84
     0.118122       349.845
     0.118947        349.85
     0.119665       349.854
