#           x             T
    -0.118946       349.837
    -0.118121       349.826
    -0.117174       349.818
    -0.116087       349.814
    -0.114839       349.811
    -0.113407       349.809
    -0.111763       349.807
    -0.109877       349.806
    -0.107712       349.805
    -0.105226       349.804
    -0.102373       349.805
   -0.0990994       349.807
   -0.0953416       349.813
   -0.0914285       349.828
    -0.087619        349.86
   -0.0838095       349.922
        -0.08       350.045
   -0.0761904       350.284
   -0.0723809       350.748
   -0.0685714       351.632
   -0.0649271        353.19
    -0.061624       355.629
   -0.0586549        359.09
   -0.0559862       363.564
   -0.0535874       368.834
   -0.0514312       374.483
   -0.0494932       379.966
   -0.0477512       384.777
   -0.0461853       388.586
   -0.0447779       391.296
   -0.0435128       393.012
   -0.0423757       393.952
   -0.0413536       394.374
   -0.0404349       394.495
     -0.03925       394.429
     -0.03775       394.198
     -0.03625       393.913
     -0.03475       393.667
     -0.03325       393.493
     -0.03175       393.398
     -0.03025       393.372
     -0.02875       393.401
     -0.02725       393.469
     -0.02575       393.559
   -0.0243993       393.651
   -0.0231362       393.732
    -0.021743         393.8
   -0.0202065       393.845
   -0.0185118       393.844
   -0.0171075       393.808
   -0.0161272       393.765
   -0.0145812       393.676
    -0.012414       393.505
   -0.0103452         393.3
  -0.00847254       393.107
  -0.00711441       392.972
  -0.00630907       392.895
  -0.00524316       392.797
  -0.00385435       392.681
  -0.00259726       392.589
  -0.00133333       392.509
            0       392.439
   0.00133333       392.384
   0.00260066       392.347
   0.00386381       392.325
   0.00525697        392.32
   0.00631696        392.33
   0.00712283       392.345
    0.0084882       392.383
    0.0103573       392.464
    0.0124188       392.597
    0.0145859       392.794
    0.0161321       392.964
     0.017115       393.087
    0.0185274       393.282
    0.0202225       393.542
    0.0217568       393.803
    0.0231456       394.063
    0.0244027       394.304
      0.02575       394.531
      0.02725        394.72
      0.02875       394.812
      0.03025       394.756
      0.03175       394.476
      0.03325       393.892
      0.03475       392.931
      0.03625       391.543
      0.03775       389.712
      0.03925       387.556
    0.0404349       385.489
    0.0413536       383.599
    0.0423757       381.506
    0.0435128       379.089
    0.0447779       376.368
    0.0461853       373.379
    0.0477511       370.182
    0.0494932       366.868
    0.0514312       363.563
    0.0535874       360.419
    0.0559862       357.583
    0.0586549       355.183
     0.061624       353.297
    0.0649271        351.93
    0.0685714       351.022
    0.0723809       350.478
    0.0761904       350.175
         0.08       350.009
    0.0838095       349.919
     0.087619       349.871
    0.0914285       349.845
    0.0953419       349.831
    0.0991002       349.825
     0.102374       349.822
     0.105227       349.821
     0.107713       349.821
     0.109878       349.821
     0.111765       349.822
     0.113408       349.824
      0.11484       349.826
     0.116088       349.829
     0.117175       349.833
     0.118122        349.84
     0.118947       349.851
     0.119665       349.861
