# vtk DataFile Version 2.0
sampleSurface
ASCII
DATASET POLYDATA
POINTS 15978 float
-4.26165e-19 0.000133477 0 -4.18079e-19 -0.000798814 0 -4.33681e-19 0.001 0 -4.09379e-19 -0.00180187
0 -0.00181681 0.000361473 0 0.00181681 0.000361473 0 -0.00181396 -0.000575145 0
0.00181396 -0.000575145 0 -0.00181945 0.00123202 0 0.00181945 0.00123202 0 -0.00181089
-0.00158285 0 0.00181089 -0.00158285 0 -4.00018e-19 -0.00288105 0 -0.00180759 -0.00266704
0 0.00180759 -0.00266704 0 -0.00351565 8.15481e-05 0 0.00351565 8.15481e-05 0
-0.00351186 -0.000939823 0 0.00351186 -0.000939823 0 -0.00351918 0.00103087 0 0.00351918
0.00103087 0 -0.00352245 0.00191322 0 0.00352245 0.00191322 0 -3.89947e-19 -0.00404214
0 -0.00350777 -0.00203871 0 0.00350777 -0.00203871 0 -0.00180405 -0.00383352 0
0.00180405 -0.00383352 0 -0.00350338 -0.00322101 0 0.00350338 -0.00322101 0 -0.005
8.60602e-05 0 0.005 8.60602e-05 0 -0.005 -0.00103629 0 0.005 -0.00103629
0 -0.005 0.00112923 0 0.005 0.00112923 0 -3.79112e-19 -0.00529135 0
-0.00180023 -0.00508853 0 0.00180023 -0.00508853 0 -0.005 0.00209882 0 0.005
0.00209882 0 -0.005 -0.00224382 0 0.005 -0.00224382 0 -0.00349866 -0.00449304
0 0.00349866 -0.00449304 0 -0.005 0.003 0 0.005 0.003 0
-0.005 -0.003543 0 0.005 -0.003543 0 -0.00637208 2.82617e-05 0 0.00639053
4.25732e-05 0 -0.00637208 0.00114892 0 -0.00637208 -0.00117745 0 0.00639053 -0.00116311
0 0.00639053 0.00116321 0 -3.67455e-19 -0.00663538 0 -0.00179612 -0.00643879 0
0.00179612 -0.00643879 0 -0.00637208 0.00219052 0 0.00639053 0.00220479 0 -0.00349357
-0.00586162 0 0.00349357 -0.00586162 0 -0.00637208 -0.00247467 0 0.00639053 -0.00246031
0 -0.005 -0.00494079 0 0.005 -0.00494079 0 -0.00637208 0.00315864 0
0.00639053 0.00317289 0 -0.00637208 -0.00387036 0 0.00639053 -0.00385597 0 -0.00637208
0.00405846 0 0.00639053 0.00407269 0 -0.00778421 -7.99569e-05 0 0.00781802 -5.3679e-05
0 -0.00778421 0.00112388 0 0.00781802 0.00115011 0 -0.00778421 -0.00137517 0
0.00781802 -0.00134884 0 -3.54912e-19 -0.00808142 0 -0.0017917 -0.00789154 0 0.0017917
-0.00789154 0 -0.00778421 0.0022428 0 -0.0034881 -0.00733407 0 0.0034881 -0.00733407
0 0.00781802 0.00226899 0 -0.005 -0.00644467 0 0.005 -0.00644467 0
-0.00778421 -0.00276868 0 0.00781802 -0.0027423 0 -0.00637208 -0.00537197 0 0.00639053
-0.00535755 0 -0.00778421 0.00328278 0 0.00781802 0.00330893 0 -0.00778421 0.00424939
0 -0.00778421 -0.00426796 0 0.00781802 -0.00424152 0 0.00781802 0.00427551 0
-0.00923755 -0.000243565 0 0.00928347 -0.000207818 0 -0.00923755 0.00104957 0 -0.00778421
0.00514782 0 0.00928347 0.00108525 0 0.00781802 0.0051739 0 -0.00923755 -0.00163485
0 0.00928347 -0.00159903 0 -0.00637208 -0.00698755 0 0.00639053 -0.0069731 0
-0.005 -0.0080627 0 0.005 -0.0080627 0 -0.00923755 0.00225148 0 0.00928347
0.0022871 0 -0.00348222 -0.00891827 0 0.00348222 -0.00891827 0 -0.00178695 -0.00945455
0 0.00178695 -0.00945455 0 -3.41418e-19 -0.00963721 0 -0.00923755 -0.00313172 0
-0.00778421 -0.00588103 0 0.00781802 -0.00585453 0 0.00928347 -0.00309583 0 -0.00923755
0.0033686 0 0.00928347 0.00340416 0 -0.00923755 0.00440692 0 0.00928347 0.00444243
0 -0.00923755 -0.00474221 0 0.00928347 -0.00470623 0 -0.00923755 0.00537198 0
-0.0107333 -0.000467921 0 0.00928347 0.00540745 0 -0.0107333 0.000921062 0 0.0107879
-0.000425364 0 0.00639053 -0.00871127 0 -0.00637208 -0.00872575 0 0.0107879 0.000963535
0 -0.00778421 -0.00761653 0 0.00781802 -0.00758997 0 -0.0107333 -0.00196233 0
0.0107879 -0.00191968 0 -0.0107333 0.00221206 0 -0.005 -0.00980352 0 0.005
-0.00980352 0 0.0107879 0.00225445 0 -0.00923755 0.00626897 0 -0.00347589 -0.0106227
0 0.00347589 -0.0106227 0 0.00928347 0.00630439 0 -0.0107333 0.00341198 0
-0.00178183 -0.0111362 0 0.00178183 -0.0111362 0 -0.00923755 -0.00647493 0 0.00928347
-0.00643887 0 -3.26899e-19 -0.0113111 0 -0.0107333 -0.00357015 0 0.0107879 0.00345431
0 0.0107879 -0.00352741 0 -0.0107333 0.00452726 0 0.0107879 0.00456952 0
-0.0107333 -0.00530001 0 0.0107879 -0.00525717 0 -0.0107333 0.00556386 0 0.0107879
0.00560606 0 -0.000743369 0.0122055 0 0.000743369 0.0122055 0 -0.00778421 -0.00948375
0 0.00781802 -0.00945713 0 -0.0122727 0.000733061 0 -0.0122727 -0.000758799 0
0.0123323 -0.000712262 0 0.0123323 0.0007795 0 0.00639053 -0.0105814 0 -0.00637208
-0.0105959 0 -0.00923755 -0.00833916 0 -0.0122727 0.00211968 0 0.00928347 -0.00830301
0 -0.0122727 -0.00236389 0 0.0123323 0.00216603 0 0.0123323 -0.00231725 0
-0.0107333 0.00652734 0 0.0107879 0.00656947 0 -0.005 -0.0116765 0 0.005
-0.0116765 0 -0.0122727 0.00340848 0 0.0123323 0.00345474 0 -0.000741126 0.0128136
0 0.000741126 0.0128136 0 -0.0107333 -0.00716117 0 0.0107879 -0.00711821 0
-0.00346908 -0.0124565 0 0.00346908 -0.0124565 0 -0.0122727 -0.00409081 0 0.0123323
-0.00404405 0 -0.0107333 0.00742284 0 -0.00177633 -0.0129455 0 0.00177633 -0.0129455
0 -0.0122727 0.00460636 0 -3.11279e-19 -0.013112 0 0.0107879 0.00746492 0
-0.002 0.013 0 0.002 0.013 0 0.0123323 0.00465255 0 -0.0007387
0.0134712 0 0.0007387 0.0134712 0 -0.0122727 0.00571974 0 0.0123323 0.00576585
0 -0.0122727 -0.00594879 0 0.0123323 -0.00590191 0 -0.002 0.0135849 0
0.002 0.0135849 0 -0.0138571 0.000479853 0 -0.00923755 -0.0103449 0 0.00928347
-0.0103086 0 0.00781802 -0.011466 0 -0.00778421 -0.0114927 0 -0.0138571 -0.00112242
0 0.0139177 0.000527252 0 0.0139177 -0.00107491 0 -0.0138571 0.0019691 0
-0.0122727 0.00675458 0 0.0139177 0.00201639 0 0.0123323 0.00680062 0 -0.0107333
-0.00916358 0 0.00639053 -0.0125934 0 0.0107879 -0.0091205 0 -0.00637208 -0.012608
0 -0.0138571 -0.0028463 0 0.0139177 -0.00279868 0 -0.000736077 0.0141824 0
0.000736077 0.0141824 0 -0.00319452 0.0138829 0 0.00320133 0.0138879 0 -0.0138571
0.00335328 0 0.0139177 0.00340049 0 -0.002 0.0142174 0 0.002 0.0142174
0 -0.0122727 0.00771641 0 0.0123323 0.00776239 0 -0.005 -0.0136916 0
0.005 -0.0136916 0 -0.0138571 0.00463982 0 -0.0122727 -0.0079478 0 -0.0138571
-0.00470103 0 0.0123323 -0.00790078 0 0.0139177 -0.00465328 0 0.0139177 0.00468694
0 -0.00319452 0.0144678 0 0.00320133 0.0144728 0 -0.00346175 -0.0144295 0
0.00346175 -0.0144295 0 -0.00073324 0.0149515 0 0.00073324 0.0149515 0 -0.0122727
0.00861039 0 -0.00177041 -0.0148921 0 0.00177041 -0.0148921 0 -0.002 0.0149014
0 0.002 0.0149014 0 -0.0138571 0.0058356 0 -2.94473e-19 -0.0150496 0
0.0123323 0.00865631 0 0.0139177 0.00588264 0 -0.0138571 -0.00669653 0 0.0139177
-0.00664864 0 -0.00319452 0.0151003 0 0.00320133 0.0151053 0 -0.0154877 0.000155282
0 -0.0138571 0.00694702 0 -0.00451419 0.0148583 0 0.0045263 0.0148673 0
0.00928347 -0.0124665 0 -0.00923755 -0.0125028 0 0.0155453 0.000200444 0 -0.0154877
-0.00156548 0 0.0139177 0.00699399 0 -0.0154877 0.00175466 0 -0.0107333 -0.011318
0 0.0107879 -0.0112748 0 0.0155453 -0.00152021 0 0.0155453 0.00179972 0
0.00781802 -0.0136273 0 -0.00778421 -0.0136541 0 -0.002 0.0156411 0 0.002
0.0156411 0 -0.000730172 0.0157833 0 0.000730172 0.0157833 0 -0.0154877 0.0032412
0 -0.0154877 -0.00341685 0 0.0155453 0.00328617 0 -0.0122727 -0.0100985 0
0.0155453 -0.00337146 0 0.0123323 -0.0100514 0 -0.0138571 0.00798004 0 0.0139177
0.00802694 0 0.00639053 -0.0147581 0 -0.00637208 -0.0147727 0 -0.00451419 0.0154432
0 0.0045263 0.0154521 0 -0.00319452 0.0157843 0 0.00320133 0.0157893 0
-0.0154877 0.00462288 0 0.0155453 0.00466776 0 -0.0154877 -0.00540874 0 -0.0138571
-0.00884348 0 0.0155453 -0.00536322 0 0.0139177 -0.00879545 0 -0.0138571 0.00894019
0 -0.002 0.0164411 0 0.002 0.0164411 0 0.0139177 0.00898702 0
-0.0154877 0.00590709 0 -0.005 -0.0158596 0 0.005 -0.0158596 0 0.0155453
0.00595189 0 -0.00451419 0.0160757 0 -0.000726854 0.0166828 0 0.000726854 0.0166828
0 0.0045263 0.0160846 0 -0.00319452 0.016524 0 0.00320133 0.016529 0
-0.00345386 -0.0165523 0 0.00345386 -0.0165523 0 -0.0138571 0.0098326 0 -0.00597213
0.0159359 0 0.00598764 0.0159474 0 -0.0154877 0.00710071 0 0.0139177 0.00987937
0 -0.00176404 -0.0169864 0 0.00176404 -0.0169864 0 0.0155453 0.00714543 0
-2.76391e-19 -0.0171343 0 -0.0171658 -0.000247278 0 0.0172162 -0.000207752 0 -0.0171658
0.00147028 0 -0.0154877 -0.0075518 0 0.0155453 -0.00750615 0 0.0172162 0.00150971
0 -0.0171658 -0.00209519 0 0.0172162 -0.00205556 0 0.0107879 -0.0135925 0
-0.0107333 -0.0136359 0 -0.00451419 0.0167597 0 0.0045263 0.0167686 0 -0.002
0.0173062 0 0.002 0.0173062 0 -0.0171658 0.00306667 0 -0.0122727 -0.0124125
0 0.00928347 -0.0147881 0 0.0123323 -0.0123652 0 -0.00923755 -0.0148246 0
0.0172162 0.00310601 0 -0.0154877 0.00821012 0 -0.00597213 0.0165208 0 0.00598764
0.0165323 0 0.0155453 0.00825477 0 -0.00319452 0.017324 0 0.00320133 0.017329
0 -0.0171658 -0.00408336 0 -0.000723266 0.0176555 0 0.000723266 0.0176555 0
0.0172162 -0.00404362 0 -0.0171658 0.00455044 0 0.00781802 -0.0159527 0 -0.00778421
-0.0159796 0 -0.0138571 -0.0111534 0 0.0139177 -0.0111052 0 0.0172162 0.0045897
0 -0.0154877 0.00924127 0 -0.00451419 0.0174994 0 0.0045263 0.0175084 0
0.0155453 0.00928585 0 -0.0171658 0.00592954 0 -0.00597213 0.0171533 0 0.00598764
0.0171648 0 0.0172162 0.00596872 0 0.00639053 -0.0170872 0 -0.00637208 -0.0171018
0 -0.0171658 -0.00622243 0 0.0172162 -0.00618257 0 -0.002 0.0182418 0
0.002 0.0182418 0 -0.0154877 -0.00985753 0 0.0155453 -0.00981172 0 -0.00319452
0.0181891 0 0.00320133 0.0181941 0 -0.0154877 0.0101997 0 0.0155453 0.0102442
0 -0.0171658 0.00721136 0 0.0172162 0.00725047 0 -0.000719385 0.0187075 0
0.000719385 0.0187075 0 -0.00758282 0.0171264 0 0.00759938 0.0171387 0 -0.00597213
0.0178373 0 0.00598764 0.0178488 0 -0.00451419 0.0182994 0 0.0045263 0.0183083
0 -0.005 -0.0181922 0 0.005 -0.0181922 0 -0.018893 -0.00073496 0
-0.018893 0.0011094 0 0.0189314 -0.000704684 0 0.0189314 0.0011396 0 -0.0154877
0.0110905 0 -0.018893 -0.0027193 0 -0.018893 0.00282365 0 -0.0171658 0.00840275
0 0.0189314 -0.00268894 0 0.0155453 0.0111349 0 0.0189314 0.00285377 0
-0.00344538 -0.0188361 0 0.00344538 -0.0188361 0 -0.0171658 -0.00852385 0 0.0172162
0.00844179 0 0.0172162 -0.00848386 0 -0.00758282 0.0177113 0 0.00759938 0.0177235
0 -0.0122727 -0.0149021 0 0.0123323 -0.0148546 0 -0.00175719 -0.0192397 0
[...]
CELL_DATA 15677
FIELD attributes 1
U 3 15677 float
-0.304871 10.2652 0 0.190476 10.9192 0 -0.101143 9.44667 0 0.0315569 10.9901
0 0.118845 10.7323 0 -0.0119271 8.75836 0 0.0455281 11.0075 0
0.0144845 10.9815 0 0.0577132 10.4719 0 0.0115305 8.22934 0 0.0466954
11.0122 0 0.043391 11.0311 0 0.0260934 10.9286 0 0.0319078 10.1908
0 0.0113234 7.85612 0 0.0440127 11.0135 0 0.0424068 11.0439 0
0.0428086 11.0209 0 0.0332382 10.8603 0 0.0213713 9.90293 0 0.0064416
7.61194 0 0.0413779 11.0136 0 0.0404482 11.0462 0 0.0402104 11.0448
0 0.0398955 11.0049 0 0.0328244 10.7692 0 0.0159528 9.6376 0
0.00250531 7.45877 0 0.0386374 11.0131 0 0.0389915 11.0453 0 0.0393864
11.0533 0 0.0385056 11.0445 0 0.0358528 10.9826 0 0.0288599 10.6571
0 0.0121633 9.41247 0 0.000563108 7.36226 0 0.0356123 11.0123 0
0.0373763 11.0435 0 0.0387182 11.056 0 0.0384541 11.0587 0 0.036056
11.0421 0 0.0318449 10.9528 0 0.0240814 10.5327 0 0.00902258 9.23749
0 1.65708e-05 7.30013 0 0.032331 11.0113 0 0.0354669 11.0411 0
0.0376297 11.0557 0 0.0378944 11.064 0 0.0361256 11.0634 0 0.0329222
11.0364 0 0.0284244 10.9174 0 0.0194911 10.3981 0 0.00646099 9.10674
0 -0.000237296 7.25756 0 0.0288555 11.0101 0 0.0333364 11.0382 0
0.036233 11.054 0 0.0369497 11.0652 0 0.0355677 11.0717 0 0.0329707
11.0663 0 0.0298266 11.0289 0 0.025419 10.8759 0 0.0154652 10.2694
0 0.00440676 9.01189 0 -0.000467973 7.23309 0 0.0252636 11.0089 0
0.0310079 11.0348 0 0.034577 11.0514 0 0.0357326 11.0644 0 0.0346596
11.0746 0 0.0324191 11.0784 0 0.0297841 11.0687 0 0.0268389 11.0213
0 0.022213 10.8306 0 0.0118439 10.1594 0 0.00266608 8.94598 0
-0.000671835 7.22155 0 0.0215502 11.0077 0 0.0284867 11.0312 0 0.0326539
11.0481 0 0.0342506 11.0622 0 0.0334628 11.0747 0 0.0314752 11.0833
0 0.029125 11.0853 0 0.0266377 11.0724 0 0.0235516 11.0144 0
0.0185176 10.7846 0 0.00844913 10.0706 0 0.00110026 8.90394 0 -0.00108767
7.22356 0 0.0178446 11.0065 0 0.0258789 11.0273 0 0.0304496 11.0442
0 0.0324876 11.0592 0 0.0319811 11.0731 0 0.0301934 11.0844 0
0.0279939 11.0924 0 0.0257177 11.0938 0 0.0231523 11.0784 0 0.0198651
11.009 0 0.014397 10.7411 0 0.00514032 10.0054 0 -0.000543042 8.88298
0 -0.00170839 7.23887 0 0.0146482 11.0053 0 0.0231945 11.0233 0
0.0279916 11.0398 0 0.0304259 11.0553 0 0.0302058 11.0703 0 0.0285897
11.0835 0 0.0264616 11.0948 0 0.0242272 11.1033 0 0.0218254 11.105
0 0.0191297 11.0875 0 0.0156744 11.0063 0 0.00992094 10.7052 0
0.0016661 9.96288 0 -0.00221392 8.8811 0 -0.00237552 7.26783 0 0.0120682
11.0043 0 0.0206508 11.0196 0 0.025315 11.0351 0 0.0280523 11.0508
0 0.0281206 11.0666 0 0.0266593 11.0811 0 0.0245535 11.0946 0
0.0222585 11.107 0 0.0198178 11.117 0 0.0172265 11.1196 0 0.0143853
11.1004 0 0.0107758 11.0078 0 0.00503295 10.6801 0 -0.00191532 9.94218
0 -0.0041039 8.89754 0 -0.00320211 7.31059 0 0.00991415 11.0034 0
0.0183862 11.0164 0 0.0227157 11.0306 0 0.0253719 11.0457 0 0.0257057
11.062 0 0.0243852 11.0776 0 0.0222671 11.0926 0 0.0198404 11.1075
0 0.0172367 11.122 0 0.0145252 11.1342 0 0.0117316 11.1386 0
0.0087339 11.1183 0 0.00507699 11.0155 0 -0.00033039 10.6684 0 -0.00578062
9.94223 0 -0.00619319 8.93128 0 -0.00411922 7.36733 0 0.00824523 11.0027
0 0.0163648 11.0136 0 0.0203667 11.0266 0 0.0226949 11.0406 0
0.0229504 11.0566 0 0.0217466 11.0731 0 0.0195866 11.0893 0 0.0169705
11.1059 0 0.0141094 11.1232 0 0.0111314 11.1406 0 0.00813535 11.1559
0 0.00513883 11.1628 0 0.00206317 11.1422 0 -0.00145762 11.0309 0
-0.0061979 10.6712 0 -0.00997015 9.9621 0 -0.0084936 8.98227 0 -0.00511709
7.43784 0 0.00686123 11.0021 0 0.0144622 11.0112 0 0.0182054 11.0231
0 0.0202223 11.0362 0 0.0201582 11.0511 0 0.0187284 11.0675 0
0.0164924 11.0848 0 0.0136343 11.1027 0 0.010431 11.1219 0 0.00706866
11.1424 0 0.00369734 11.1635 0 0.000418519 11.1828 0 -0.0027084 11.1931
0 -0.00570877 11.173 0 -0.00884913 11.0557 0 -0.0126073 10.6898 0
-0.0145169 10.0008 0 -0.0109898 9.04972 0 -0.00618298 7.52194 0 0.0057247
11.0017 0 0.0127755 11.0093 0 0.0161889 11.0201 0 0.0178956 11.0321
0 0.0175503 11.0461 0 0.015658 11.0617 0 0.0129708 11.0791 0
0.00981543 11.0982 0 0.00618618 11.1188 0 0.00232713 11.1414 0 -0.00156176
11.1659 0 -0.0053237 11.1917 0 -0.00881604 11.2157 0 -0.0119294 11.2303
0 -0.0146379 11.212 0 -0.0171262 11.0911 0 -0.0195736 10.7246 0
-0.0194176 10.0578 0 -0.0136746 9.13315 0 -0.00729849 7.61894 0 0.00479167
11.0014 0 0.0112544 11.0078 0 0.0143338 11.0174 0 0.0157176 11.0285
0 0.0150782 11.0414 0 0.0127859 11.0562 0 0.0094022 11.0729 0
0.0055066 11.0922 0 0.00136133 11.114 0 -0.00311193 11.1381 0 -0.00765966
11.165 0 -0.0120727 11.1946 0 -0.0161542 11.2258 0 -0.0197129 11.2556
0 -0.0226039 11.2753 0 -0.0247659 11.26 0 -0.0262899 11.1382 0
-0.0270823 10.7758 0 -0.0246531 10.1321 0 -0.0165247 9.23178 0 -0.00846444
7.7282 0 0.00405131 11.0011 0 0.00988737 11.0066 0 0.0126441 11.0152
0 0.0136943 11.0252 0 0.0127604 11.0372 0 0.0100673 11.051 0
0.006077 11.0669 0 0.00117439 11.0855 0 -0.00404198 11.1076 0 -0.00926067
11.133 0 -0.0146216 11.1615 0 -0.0198582 11.1936 0 -0.0247226 11.2291
0 -0.0289709 11.2667 0 -0.03238 11.303 0 -0.0347876 11.3288 0
-0.0360953 11.3178 0 -0.0363108 11.1977 0 -0.0351074 10.8431 0 -0.0302032
10.2229 0 -0.0195246 9.34489 0 -0.00966019 7.84897 0 0.00348345 11.001
0 0.00872126 11.0056 0 0.0111059 11.0133 0 0.0118333 11.0224 0
0.0106085 11.0333 0 0.00752889 11.046 0 0.0029459 11.061 0 -0.00283475
11.0788 0 -0.00943397 11.1002 0 -0.0161073 11.1258 0 -0.0224601 11.1558
0 -0.0287156 11.1898 0 -0.0345685 11.228 0 -0.0397248 11.2703 0
-0.0439101 11.3151 0 -0.0468908 11.3588 0 -0.0484917 11.3916 0 -0.0485911
11.386 0 -0.0471287 11.2699 0 -0.0436069 10.9261 0 -0.0360286 10.3292
0 -0.022633 9.47137 0 -0.0108554 7.98004 0 0.00304324 11.0008 0
0.00776681 11.0048 0 0.00976266 11.0117 0 0.0101328 11.0199 0 0.00863199
11.0298 0 0.00518946 11.0415 0 4.3828e-05 11.0553 0 -0.00658187 11.0721
0 -0.0143904 11.0926 0 -0.022899 11.1175 0 -0.0311525 11.1478 0
-0.0386599 11.1833 0 -0.0457411 11.2236 0 -0.0520451 11.269 0 -0.0572474
11.3189 0 -0.0610662 11.3717 0 -0.0632665 11.4236 0 -0.0636801 11.464
0 -0.0621823 11.465 0 -0.0586632 11.3548 0 -0.0525159 11.024 0
-0.0420576 10.4497 0 -0.0258006 9.60998 0 -0.0120364 8.12017 0 0.00269579
11.0007 0 0.00698201 11.0043 0 0.00864597 11.0105 0 0.00865491 11.0177
0 0.00683561 11.0266 0 0.00306267 11.0372 0 -0.00260266 11.0499 0
-0.0100237 11.0655 0 -0.0189895 11.0848 0 -0.0291077 11.1088 0 -0.0397378
11.1382 0 -0.0496575 11.174 0 -0.0582615 11.2161 0 -0.0660003 11.2638
0 -0.0724928 11.3171 0 -0.0774091 11.3755 0 -0.080474 11.4371 0
-0.0814757 11.4977 0 -0.0802719 11.5464 0 -0.0767563 11.5547 0 -0.0707951
11.4522 0 -0.0617266 11.1359 0 -0.0482321 10.5831 0 -0.0289899 9.75937
0 -0.0131921 8.26803 0 0.00241724 11.0006 0 0.00633411 11.0038 0
0.00772356 11.0095 0 0.00743641 11.016 0 0.00529052 11.0238 0 0.00115767
11.0333 0 -0.00497393 11.0448 0 -0.0131253 11.059 0 -0.0231779 11.077
0 -0.0348348 11.0996 0 -0.0475545 11.128 0 -0.060489 11.1628 0
-0.0720855 11.2054 0 -0.0816218 11.2551 0 -0.0897413 11.311 0 -0.0960602
11.3732 0 -0.100262 11.4407 0 -0.102105 11.5117 0 -0.101426 11.5814
0 -0.098138 11.6389 0 -0.0921823 11.6552 0 -0.083402 11.5615 0
-0.0711323 11.2605 0 -0.0544798 10.7281 0 -0.032165 9.91807 0 -0.014302
8.42223 0 0.00219087 11.0006 0 0.00579503 11.0035 0 0.00695567 11.0086
0 0.00643714 11.0146 0 0.00403387 11.0215 0 -0.000448396 11.0298 0
-0.00705597 11.0399 0 -0.01586 11.0528 0 -0.0269108 11.0693 0 -0.0400141
11.0903 0 -0.0547336 11.1171 0 -0.0703252 11.1508 0 -0.0856797 11.1922
0 -0.0988573 11.2425 0 -0.10904 11.3008 0 -0.117148 11.366 0
-0.122818 11.4377 0 -0.12578 11.515 0 -0.125861 11.5957 0 -0.122979
11.6749 0 -0.117118 11.7413 0 -0.108281 11.766 0 -0.0963435 11.6821
0 -0.0806455 11.3965 0 -0.0607213 10.8832 0 -0.0352872 10.0845 0
-0.0153546 8.58131 0 0.00200474 11.0005 0 0.00534359 11.0032 0 0.00631267
11.008 0 0.00561386 11.0134 0 0.00301968 11.0196 0 -0.00172279 11.0268
0 -0.00876366 11.0355 0 -0.018208 11.0468 0 -0.0301528 11.0616 0
-0.0445886 11.0809 0 -0.061193 11.1059 0 -0.0793343 11.1379 0 -0.0980083
11.1779 0 -0.115797 11.227 0 -0.130331 11.2861 0 -0.140742 11.3541
0 -0.148317 11.4292 0 -0.152756 11.5112 0 -0.153871 11.5986 0
-0.15159 11.6892 0 -0.145936 11.778 0 -0.137001 11.8533 0 -0.124866
11.8867 0 -0.109457 11.8128 0 -0.0901529 11.5424 0 -0.0668821 11.0466
0 -0.0383237 10.2572 0 -0.0163521 8.74387 0 0.00185013 11.0004 0
0.00496318 11.0029 0 0.00577108 11.0074 0 0.00493291 11.0124 0 0.00220007
11.0179 0 -0.00272153 11.0242 0 -0.0100715 11.0317 0 -0.0200735 11.0413
0 -0.0328767 11.0542 0 -0.0485115 11.0715 0 -0.0668599 11.0945 0
-0.0874137 11.1243 0 -0.109285 11.1625 0 -0.131155 11.21 0 -0.151264
11.2678 0 -0.166789 11.3368 0 -0.176867 11.4153 0 -0.183259 11.5012
0 -0.185771 11.5938 0 -0.184347 11.6917 0 -0.179055 11.7923 0
-0.170057 11.8904 0 -0.157553 11.9744 0 -0.141739 12.0163 0 -0.122589
11.9525 0 -0.0995432 11.6969 0 -0.0729001 11.2169 0 -0.0412543 10.4345
0 -0.0172099 8.9088 0 0.00172057 11.0004 0 0.00464075 11.0027 0
0.0053123 11.007 0 0.00436738 11.0115 0 0.00153654 11.0165 0 -0.00350131
11.0221 0 -0.0110518 11.0285 0 -0.0214416 11.0365 0 -0.0349717 11.0472
0 -0.0517462 11.0622 0 -0.0716731 11.0829 0 -0.0944707 11.1103 0
-0.119382 11.1461 0 -0.145201 11.1915 0 -0.170255 11.2477 0 -0.192428
11.3154 0 -0.208415 11.3953 0 -0.217433 11.4852 0 -0.221855 11.5824
0 -0.221657 11.6859 0 -0.216952 11.7941 0 -0.207982 11.9045 0
-0.195064 12.0116 0 -0.178534 12.104 0 -0.158698 12.1539 0 -0.135597
12.1 0 -0.108717 11.8583 0 -0.0787321 11.3924 0 -0.0440103 10.6151
0 -0.0185227 9.07333 0 0.00161116 11.0004 0 0.00436592 11.0026 0
0.0049213 11.0066 0 0.00389578 11.0108 0 0.000998186 11.0154 0 -0.00410781
11.0202 0 -0.0117754 11.0257 0 -0.0224077 11.0323 0 -0.0364365 11.0411
0 -0.0541609 11.0535 0 -0.0755836 11.0713 0 -0.100426 11.096 0
-0.128181 11.129 0 -0.157776 11.1718 0 -0.187639 11.2257 0 -0.215721
11.2917 0 -0.239516 11.3703 0 -0.255252 11.4621 0 -0.262334 11.564
0 -0.263899 11.6727 0 -0.260138 11.7872 0 -0.251378 11.9058 0
-0.238058 12.0255 0 -0.220669 12.1411 0 -0.199692 12.2412 0 -0.175546
12.2986 0 -0.14834 12.254 0 -0.117603 12.0251 0 -0.0843069 11.5717
0 -0.0472239 10.797 0 -0.019751 9.26717 0 0.0015181 11.0003 0
0.00413047 11.0024 0 0.00458806 11.0063 0 0.00350081 11.0102 0 0.000560345
11.0143 0 -0.00457762 11.0186 0 -0.0122993 11.0232 0 -0.0230632 11.0286
0 -0.0373982 11.0357 0 -0.0557709 11.0456 0 -0.0784312 11.0602 0
-0.105214 11.0816 0 -0.135581 11.1114 0 -0.16873 11.151 0 -0.203221
11.202 0 -0.237081 11.2656 0 -0.267832 11.3426 0 -0.29262 11.4332
0 -0.307221 11.5375 0 -0.311362 11.6519 0 -0.309087 11.7724 0
-0.300861 11.8978 0 -0.287254 12.0262 0 -0.268931 12.1547 0 -0.246565
12.278 0 -0.220778 12.385 0 -0.192094 12.4492 0 -0.160708 12.413
0 -0.126108 12.196 0 -0.0900089 11.7528 0 -0.0500528 11.0002 0
-0.0200742 9.46637 0 0.00143839 11.0003 0 0.00392792 11.0023 0 0.00430119
11.006 0 0.00316845 11.0097 0 0.00020331 11.0135 0 -0.00493986 11.0173
0 -0.012669 11.0211 0 -0.023481 11.0255 0 -0.0379752 11.031 0
-0.0567441 11.0387 0 -0.0802502 11.0503 0 -0.108636 11.0677 0 -0.141493
11.0935 0 -0.177933 11.1295 0 -0.216814 11.1769 0 -0.256269 11.2373
0 -0.29387 11.3118 0 -0.326736 11.401 0 -0.351697 11.5044 0
-0.364114 11.622 0 -0.364184 11.7491 0 -0.357015 11.8813 0 -0.343395
12.0171 0 -0.324167 12.1547 0 -0.300233 12.2912 0 -0.272447 12.4214
0 -0.241554 12.5343 0 -0.20819 12.6043 0 -0.172578 12.5759 0
-0.134436 12.3689 0 -0.0954288 11.9552 0 -0.0518973 11.223 0 -0.0204769
9.66116 0 0.00136958 11.0003 0 0.00375308 11.0022 0 0.00405314 11.0057
0 0.00288885 11.0092 0 -8.87058e-05 11.0127 0 -0.00521768 11.0161 0
-0.0129204 11.0193 0 -0.0237192 11.0227 0 -0.0382624 11.0268 0 -0.0572345
11.0327 0 -0.0812599 11.0415 0 -0.110749 11.0552 0 -0.14567 11.0762
0 -0.18527 11.1074 0 -0.228249 11.1507 0 -0.273051 11.2072 0
-0.317333 11.2784 0 -0.358215 11.3651 0 -0.392435 11.4673 0 -0.416549
11.5844 0 -0.425574 11.7156 0 -0.420346 11.8555 0 -0.407196 11.999
0 -0.387264 12.1447 0 -0.361687 12.2907 0 -0.331599 12.4343 0
-0.298019 12.5703 0 -0.261813 12.6881 0 -0.223671 12.7631 0 -0.184018
12.7408 0 -0.142786 12.5627 0 -0.100249 12.1781 0 -0.0539171 11.442
0 -0.0209082 9.84944 0 0.00131032 11.0003 0 0.00360141 11.0021 0
0.00383895 11.0055 0 0.00265203 11.0088 0 -0.000328165 11.0121 0 -0.00542943
11.015 0 -0.013082 11.0177 0 -0.0238237 11.0202 0 -0.0383348 11.0232
0 -0.0573653 11.0273 0 -0.0816595 11.0337 0 -0.111834 11.044 0
-0.148188 11.0604 0 -0.190428 11.0859 0 -0.237376 11.1237 0 -0.287218
11.1757 0 -0.337939 11.2426 0 -0.386699 11.3259 0 -0.430173 11.4259
0 -0.464756 11.5422 0 -0.486813 11.6733 0 -0.491113 11.8183 0
-0.479306 11.9708 0 -0.459082 12.1251 0 -0.431962 12.2799 0 -0.399374
12.4334 0 -0.362669 12.5829 0 -0.323018 12.7236 0 -0.281352 12.8453
0 -0.238494 12.9237 0 -0.19573 12.9259 0 -0.150709 12.7764 0
-0.104859 12.3979 0 -0.0558595 11.6547 0 -0.0212675 10.0298 0 0.00346876
11.0021 0 0.00123863 11.0003 0 0.0036524 11.0053 0 0.0024504 11.0085
0 -0.000525039 11.0115 0 -0.00558962 11.0141 0 -0.013176 11.0163 0
-0.02383 11.0181 0 -0.0382513 11.02 0 -0.0572338 11.0226 0 -0.0816083
11.0268 0 -0.112146 11.034 0 -0.149406 11.0464 0 -0.1935 11.0664
0 -0.243797 11.0974 0 -0.298574 11.143 0 -0.35542 11.205 0
-0.411842 11.2838 0 -0.464489 11.3804 0 -0.509616 11.4947 0 -0.543349
11.6258 0 -0.561978 11.7714 0 -0.560128 11.9301 0 -0.54044 12.0947
0 -0.512087 12.259 0 -0.476972 12.4218 0 -0.4368 12.5817 0
-0.393114 12.736 0 -0.34719 12.8804 0 -0.300039 13.0044 0 -0.253877
13.1041 0 -0.207188 13.1302 0 -0.157928 12.9876 0 -0.109037 12.6121
0 -0.0575215 11.8593 0 -0.0215362 10.2019 0 0.00348702 11.0052 0
0.00331283 11.002 0 0.00115185 11.0002 0 0.00227715 11.0082 0 -0.000687287
11.011 0 -0.00570937 11.0133 0 -0.0132198 11.015 0 -0.0237659 11.0163
0 -0.0380575 11.0172 0 -0.0569162 11.0184 0 -0.0812324 11.0207 0
-0.111891 11.0252 0 -0.149648 11.0338 0 -0.194938 11.0488 0 -0.247621
11.0732 0 -0.30661 11.1109 0 -0.369527 11.1657 0 -0.433311 11.2392
0 -0.494961 11.3313 0 -0.550633 11.4425 0 -0.596225 11.5721 0
-0.627699 11.7184 0 -0.641399 11.8786 0 -0.63192 12.0507 0 -0.60307
12.2265 0 -0.5656 12.3998 0 -0.52178 12.5697 0 -0.47356 12.7346
0 -0.422622 12.8926 0 -0.370329 13.0391 0 -0.31958 13.1831 0
-0.269206 13.3032 0 -0.217512 13.3322 0 -0.164388 13.1938 0 -0.11262
12.8189 0 -0.058892 12.055 0 -0.0217068 10.3651 0 0.00212301 11.0079
0 0.00330516 11.005 0 0.00311561 11.0019 0 0.00106868 11.0002 4.29338e-19
-0.000822756 11.0105 0 -0.00579726 11.0126 0 -0.0132264 11.014 0 -0.023653
11.0146 0 -0.0377888 11.0148 0 -0.0564713 11.0148 0 -0.0806298 11.0153
0 -0.111229 11.0174 0 -0.149174 11.0226 0 -0.195146 11.033 0
-0.249402 11.0514 0 -0.31144 11.0814 0 -0.379612 11.127 0 -0.45079
11.1925 0 -0.521183 11.2791 0 -0.587303 11.3858 0 -0.644864 11.5126
0 -0.689499 11.6582 0 -0.717137 11.8201 0 -0.724313 11.9946 0
-0.705721 12.1794 0 -0.666492 12.3657 0 -0.619017 12.5468 0 -0.565899
12.7223 0 -0.509274 12.8912 0 -0.450924 13.0514 0 -0.394645 13.2174
0 -0.339304 13.3805 0 -0.282982 13.5002 0 -0.226741 13.5298 0
-0.169981 13.3933 0 -0.115633 13.0174 0 -0.0599896 12.2413 0 -0.0217828
10.5192 0 -0.000946127 11.0101 0 0.00197164 11.0076 0 0.00308977 11.0047
1.87964e-18 0.00292447 11.0017 -1.35934e-18 0.000988668 11.0002 -8.71335e-19 -0.00586165 11.012 0
-0.0132053 11.013 0 -0.0235069 11.0132 0 -0.0374721 11.0126 0 -0.0559441
11.0116 0 -0.0798763 11.0106 0 -0.110288 11.0105 0 -0.148189 11.0127
0 -0.194453 11.019 0 -0.249643 11.0319 0 -0.313738 11.0547 0
-0.385776 11.0913 0 -0.463452 11.1463 0 -0.542753 11.2241 0 -0.619133
11.3252 0 -0.688671 11.4479 0 -0.746716 11.5914 0 -0.788763 11.7534
0 -0.810851 11.9308 0 -0.809866 12.1193 0 -0.780718 12.3159 0
-0.729994 12.5113 0 -0.671758 12.699 0 -0.608872 12.8789 0 -0.543608
13.0502 0 -0.480772 13.2298 0 -0.419402 13.4145 0 -0.357073 13.5757
0 -0.295284 13.693 0 -0.234786 13.7212 0 -0.17473 13.5851 0
-0.118118 13.2069 0 -0.0608401 12.418 0 -0.0217768 10.6641 0 -0.00592458
11.0115 0 -0.00102885 11.0097 -3.80506e-18 0.00180391 11.0071 -1.97913e-18 0.00288023 11.0044
9.54214e-19 0.00273666 11.0016 -9.19232e-19 0.000911872 11.0002 0 -0.0131653 11.0122 0
-0.0233385 11.0119 0 -0.0371269 11.0107 0 -0.0553692 11.0087 0 -0.07903
11.0064 0 -0.109164 11.0044 0 -0.146856 11.0039 0 -0.193117 11.0065
0 -0.248753 11.0144 0 -0.31412 11.0306 0 -0.388827 11.0588 0
-0.471367 11.1035 0 -0.558628 11.1695 0 -0.645624 11.2612 0 -0.727058
11.3784 0 -0.798661 11.5182 0 -0.855534 11.679 0 -0.893178 11.8577
0 -0.907916 12.0504 0 -0.897139 12.252 0 -0.856079 12.4593 0
-0.792886 12.6625 0 -0.723277 12.8554 0 -0.650292 13.0381 0 -0.579934
13.2291 0 -0.511356 13.4274 0 -0.441781 13.6096 0 -0.372952 13.767
0 -0.306053 13.88 0 -0.241666 13.9054 0 -0.178695 13.7686 0
-0.120122 13.387 0 -0.0614737 12.5846 0 -0.0217031 10.7998 0 -0.0131391
11.0114 0 -0.0058922 11.0108 8.0084e-18 -0.00107776 11.0091 0 0.00164303 11.0067
2.00794e-18 0.00267776 11.0042 5.84748e-22 0.00255275 11.0015 0 0.000838278 11.0002 0
-0.0231572 11.0108 0 -0.0367662 11.009 0 -0.0547711 11.0062 0 -0.0781347
11.0027 0 -0.107931 10.999 0 -0.145297 10.9961 0 -0.191343 10.9954
0 -0.247054 10.9988 0 -0.313086 11.0091 0 -0.389509 11.0295 0
-0.475486 11.0644 0 -0.56881 11.1187 0 -0.665462 11.1973 0 -0.759411
11.3046 0 -0.844638 11.4392 0 -0.916664 11.5971 0 -0.970482 11.7757
0 -1.00178 11.9711 0 -1.00733 12.1784 0 -0.985178 12.3922 0
-0.93098 12.6088 0 -0.85451 12.8185 0 -0.773076 13.0148 0 -0.69426
13.2176 0 -0.617336 13.4274 0 -0.539109 13.623 0 -0.461809 13.8008
0 -0.386912 13.9527 0 -0.315313 14.0603 0 -0.247461 14.0819 0
-0.181941 13.9432 0 -0.121698 13.5575 0 -0.0619209 12.7414 0 -0.0215743
10.9265 0 -0.0230102 11.0098 0 -0.0129406 11.0106 5.04579e-22 -0.00574118 11.01
0 -0.00112454 11.0085 -2.11304e-18 0.00149105 11.0063 4.18202e-22 0.00248254 11.004 0
0.0023728 11.0014 0 0.000767879 11.0001 0 -0.0363993 11.0075 0 -0.0541651
11.004 0 -0.0772219 10.9994 0 -0.106647 10.9942 0 -0.143607 10.9892
0 -0.189286 10.9856 0 -0.2448 10.985 0 -0.311036 10.9898 0
-0.38843 11.0032 0 -0.476696 11.0291 0 -0.574402 11.0721 0 -0.678541
11.1375 0 -0.784086 11.2304 0 -0.883902 11.3549 0 -0.971336 11.5083
0 -1.04187 11.6851 0 -1.09058 11.8817 0 -1.11351 12.0934 0
-1.10805 12.3145 0 -1.07304 12.5391 0 -1.00463 12.7636 0 -0.914255
12.9778 0 -0.826105 13.1949 0 -0.73971 13.4169 0 -0.651408 13.6241
0 -0.564004 13.815 0 -0.479473 13.9866 0 -0.398989 14.1318 0
-0.323161 14.2331 0 -0.252259 14.25 0 -0.18454 14.1087 0 -0.122894
13.7182 0 -0.0622076 12.8884 0 -0.0214017 11.0446 0 -0.0360946 11.0062
0 -0.0225847 11.0087 -4.42888e-18 -0.0124953 11.0095 0 -0.00559483 11.0092 0
-0.00115806 11.0079 6.42778e-18 0.00134788 11.0059 0 0.0022944 11.0037 0 0.00219696
11.0013 1.91547e-18 0.000700681 11.0001 0 -0.0535612 11.002 0 -0.0763099 10.9965
0 -0.10535 10.99 0 -0.141858 10.9831 0 -0.187067 10.9768 0
-0.24219 10.9726 0 -0.308286 10.9726 0 -0.38608 10.9796 0 -0.475729
10.9972 0 -0.576452 11.0299 0 -0.686121 11.0826 0 -0.800817 11.1608
0 -0.914418 11.2698 0 -1.01866 11.413 0 -1.1064 11.5862 0
-1.1733 11.7824 0 -1.2147 11.997 0 -1.22722 12.2243 0 -1.20903
12.4579 0 -1.15982 12.692 0 -1.0763 12.9224 0 -0.978077 13.1584
0 -0.881106 13.3954 0 -0.781252 13.615 0 -0.682052 13.8173 0
-0.586035 14.0017 0 -0.494825 14.166 0 -0.409293 14.3036 0 -0.329714
14.398 0 -0.256161 14.4095 0 -0.186565 14.2649 0 -0.123761 13.8693
0 -0.0623595 13.0259 0 -0.0211956 11.1544 0 -0.0530562 11.0003 0
-0.0353665 11.0047 0 -0.0217276 11.0074 -4.84008e-18 -0.0120667 11.0086 -4.67099e-18 -0.00542915
11.0085 -9.00997e-18 -0.00117823 11.0074 0 0.00121361 11.0056 -4.18444e-18 0.00211355 11.0035
-4.03024e-18 0.00202519 11.0013 1.93976e-18 0.000636539 11.0001 0 -0.0754093 10.994 0
-0.104063 10.9863 0 -0.140102 10.9777 0 -0.184778 10.9691 0 -0.239375
10.9617 0 -0.305082 10.9574 0 -0.382844 10.9586 0 -0.473176 10.9686
0 -0.575827 10.9917 0 -0.68942 11.0325 0 -0.81102 11.0966 0
-0.93569 11.1896 0 -1.05615 11.3164 0 -1.16304 11.4796 0 -1.2489