# vtk DataFile Version 2.0
sampleSurface
ASCII
DATASET POLYDATA
POINTS 15978 float
-4.26165e-19 0.000133477 0 -4.18079e-19 -0.000798814 0 -4.33681e-19 0.001 0 -4.09379e-19 -0.00180187
0 -0.00181681 0.000361473 0 0.00181681 0.000361473 0 -0.00181396 -0.000575145 0
0.00181396 -0.000575145 0 -0.00181945 0.00123202 0 0.00181945 0.00123202 0 -0.00181089
-0.00158285 0 0.00181089 -0.00158285 0 -4.00018e-19 -0.00288105 0 -0.00180759 -0.00266704
0 0.00180759 -0.00266704 0 -0.00351565 8.15481e-05 0 0.00351565 8.15481e-05 0
-0.00351186 -0.000939823 0 0.00351186 -0.000939823 0 -0.00351918 0.00103087 0 0.00351918
0.00103087 0 -0.00352245 0.00191322 0 0.00352245 0.00191322 0 -3.89947e-19 -0.00404214
0 -0.00350777 -0.00203871 0 0.00350777 -0.00203871 0 -0.00180405 -0.00383352 0
0.00180405 -0.00383352 0 -0.00350338 -0.00322101 0 0.00350338 -0.00322101 0 -0.005
8.60602e-05 0 0.005 8.60602e-05 0 -0.005 -0.00103629 0 0.005 -0.00103629
0 -0.005 0.00112923 0 0.005 0.00112923 0 -3.79112e-19 -0.00529135 0
-0.00180023 -0.00508853 0 0.00180023 -0.00508853 0 -0.005 0.00209882 0 0.005
0.00209882 0 -0.005 -0.00224382 0 0.005 -0.00224382 0 -0.00349866 -0.00449304
0 0.00349866 -0.00449304 0 -0.005 0.003 0 0.005 0.003 0
-0.005 -0.003543 0 0.005 -0.003543 0 -0.00637208 2.82617e-05 0 0.00639053
4.25732e-05 0 -0.00637208 0.00114892 0 -0.00637208 -0.00117745 0 0.00639053 -0.00116311
0 0.00639053 0.00116321 0 -3.67455e-19 -0.00663538 0 -0.00179612 -0.00643879 0
0.00179612 -0.00643879 0 -0.00637208 0.00219052 0 0.00639053 0.00220479 0 -0.00349357
-0.00586162 0 0.00349357 -0.00586162 0 -0.00637208 -0.00247467 0 0.00639053 -0.00246031
0 -0.005 -0.00494079 0 0.005 -0.00494079 0 -0.00637208 0.00315864 0
0.00639053 0.00317289 0 -0.00637208 -0.00387036 0 0.00639053 -0.00385597 0 -0.00637208
0.00405846 0 0.00639053 0.00407269 0 -0.00778421 -7.99569e-05 0 0.00781802 -5.3679e-05
0 -0.00778421 0.00112388 0 0.00781802 0.00115011 0 -0.00778421 -0.00137517 0
0.00781802 -0.00134884 0 -3.54912e-19 -0.00808142 0 -0.0017917 -0.00789154 0 0.0017917
-0.00789154 0 -0.00778421 0.0022428 0 -0.0034881 -0.00733407 0 0.0034881 -0.00733407
0 0.00781802 0.00226899 0 -0.005 -0.00644467 0 0.005 -0.00644467 0
-0.00778421 -0.00276868 0 0.00781802 -0.0027423 0 -0.00637208 -0.00537197 0 0.00639053
-0.00535755 0 -0.00778421 0.00328278 0 0.00781802 0.00330893 0 -0.00778421 0.00424939
0 -0.00778421 -0.00426796 0 0.00781802 -0.00424152 0 0.00781802 0.00427551 0
-0.00923755 -0.000243565 0 0.00928347 -0.000207818 0 -0.00923755 0.00104957 0 -0.00778421
0.00514782 0 0.00928347 0.00108525 0 0.00781802 0.0051739 0 -0.00923755 -0.00163485
0 0.00928347 -0.00159903 0 -0.00637208 -0.00698755 0 0.00639053 -0.0069731 0
-0.005 -0.0080627 0 0.005 -0.0080627 0 -0.00923755 0.00225148 0 0.00928347
0.0022871 0 -0.00348222 -0.00891827 0 0.00348222 -0.00891827 0 -0.00178695 -0.00945455
0 0.00178695 -0.00945455 0 -3.41418e-19 -0.00963721 0 -0.00923755 -0.00313172 0
-0.00778421 -0.00588103 0 0.00781802 -0.00585453 0 0.00928347 -0.00309583 0 -0.00923755
0.0033686 0 0.00928347 0.00340416 0 -0.00923755 0.00440692 0 0.00928347 0.00444243
0 -0.00923755 -0.00474221 0 0.00928347 -0.00470623 0 -0.00923755 0.00537198 0
-0.0107333 -0.000467921 0 0.00928347 0.00540745 0 -0.0107333 0.000921062 0 0.0107879
-0.000425364 0 0.00639053 -0.00871127 0 -0.00637208 -0.00872575 0 0.0107879 0.000963535
0 -0.00778421 -0.00761653 0 0.00781802 -0.00758997 0 -0.0107333 -0.00196233 0
0.0107879 -0.00191968 0 -0.0107333 0.00221206 0 -0.005 -0.00980352 0 0.005
-0.00980352 0 0.0107879 0.00225445 0 -0.00923755 0.00626897 0 -0.00347589 -0.0106227
0 0.00347589 -0.0106227 0 0.00928347 0.00630439 0 -0.0107333 0.00341198 0
-0.00178183 -0.0111362 0 0.00178183 -0.0111362 0 -0.00923755 -0.00647493 0 0.00928347
-0.00643887 0 -3.26899e-19 -0.0113111 0 -0.0107333 -0.00357015 0 0.0107879 0.00345431
0 0.0107879 -0.00352741 0 -0.0107333 0.00452726 0 0.0107879 0.00456952 0
-0.0107333 -0.00530001 0 0.0107879 -0.00525717 0 -0.0107333 0.00556386 0 0.0107879
0.00560606 0 -0.000743369 0.0122055 0 0.000743369 0.0122055 0 -0.00778421 -0.00948375
0 0.00781802 -0.00945713 0 -0.0122727 0.000733061 0 -0.0122727 -0.000758799 0
0.0123323 -0.000712262 0 0.0123323 0.0007795 0 0.00639053 -0.0105814 0 -0.00637208
-0.0105959 0 -0.00923755 -0.00833916 0 -0.0122727 0.00211968 0 0.00928347 -0.00830301
0 -0.0122727 -0.00236389 0 0.0123323 0.00216603 0 0.0123323 -0.00231725 0
-0.0107333 0.00652734 0 0.0107879 0.00656947 0 -0.005 -0.0116765 0 0.005
-0.0116765 0 -0.0122727 0.00340848 0 0.0123323 0.00345474 0 -0.000741126 0.0128136
0 0.000741126 0.0128136 0 -0.0107333 -0.00716117 0 0.0107879 -0.00711821 0
-0.00346908 -0.0124565 0 0.00346908 -0.0124565 0 -0.0122727 -0.00409081 0 0.0123323
-0.00404405 0 -0.0107333 0.00742284 0 -0.00177633 -0.0129455 0 0.00177633 -0.0129455
0 -0.0122727 0.00460636 0 -3.11279e-19 -0.013112 0 0.0107879 0.00746492 0
-0.002 0.013 0 0.002 0.013 0 0.0123323 0.00465255 0 -0.0007387
0.0134712 0 0.0007387 0.0134712 0 -0.0122727 0.00571974 0 0.0123323 0.00576585
0 -0.0122727 -0.00594879 0 0.0123323 -0.00590191 0 -0.002 0.0135849 0
0.002 0.0135849 0 -0.0138571 0.000479853 0 -0.00923755 -0.0103449 0 0.00928347
-0.0103086 0 0.00781802 -0.011466 0 -0.00778421 -0.0114927 0 -0.0138571 -0.00112242
0 0.0139177 0.000527252 0 0.0139177 -0.00107491 0 -0.0138571 0.0019691 0
-0.0122727 0.00675458 0 0.0139177 0.00201639 0 0.0123323 0.00680062 0 -0.0107333
-0.00916358 0 0.00639053 -0.0125934 0 0.0107879 -0.0091205 0 -0.00637208 -0.012608
0 -0.0138571 -0.0028463 0 0.0139177 -0.00279868 0 -0.000736077 0.0141824 0
0.000736077 0.0141824 0 -0.00319452 0.0138829 0 0.00320133 0.0138879 0 -0.0138571
0.00335328 0 0.0139177 0.00340049 0 -0.002 0.0142174 0 0.002 0.0142174
0 -0.0122727 0.00771641 0 0.0123323 0.00776239 0 -0.005 -0.0136916 0
0.005 -0.0136916 0 -0.0138571 0.00463982 0 -0.0122727 -0.0079478 0 -0.0138571
-0.00470103 0 0.0123323 -0.00790078 0 0.0139177 -0.00465328 0 0.0139177 0.00468694
0 -0.00319452 0.0144678 0 0.00320133 0.0144728 0 -0.00346175 -0.0144295 0
0.00346175 -0.0144295 0 -0.00073324 0.0149515 0 0.00073324 0.0149515 0 -0.0122727
0.00861039 0 -0.00177041 -0.0148921 0 0.00177041 -0.0148921 0 -0.002 0.0149014
0 0.002 0.0149014 0 -0.0138571 0.0058356 0 -2.94473e-19 -0.0150496 0
0.0123323 0.00865631 0 0.0139177 0.00588264 0 -0.0138571 -0.00669653 0 0.0139177
-0.00664864 0 -0.00319452 0.0151003 0 0.00320133 0.0151053 0 -0.0154877 0.000155282
0 -0.0138571 0.00694702 0 -0.00451419 0.0148583 0 0.0045263 0.0148673 0
0.00928347 -0.0124665 0 -0.00923755 -0.0125028 0 0.0155453 0.000200444 0 -0.0154877
-0.00156548 0 0.0139177 0.00699399 0 -0.0154877 0.00175466 0 -0.0107333 -0.011318
0 0.0107879 -0.0112748 0 0.0155453 -0.00152021 0 0.0155453 0.00179972 0
0.00781802 -0.0136273 0 -0.00778421 -0.0136541 0 -0.002 0.0156411 0 0.002
0.0156411 0 -0.000730172 0.0157833 0 0.000730172 0.0157833 0 -0.0154877 0.0032412
0 -0.0154877 -0.00341685 0 0.0155453 0.00328617 0 -0.0122727 -0.0100985 0
0.0155453 -0.00337146 0 0.0123323 -0.0100514 0 -0.0138571 0.00798004 0 0.0139177
0.00802694 0 0.00639053 -0.0147581 0 -0.00637208 -0.0147727 0 -0.00451419 0.0154432
0 0.0045263 0.0154521 0 -0.00319452 0.0157843 0 0.00320133 0.0157893 0
-0.0154877 0.00462288 0 0.0155453 0.00466776 0 -0.0154877 -0.00540874 0 -0.0138571
-0.00884348 0 0.0155453 -0.00536322 0 0.0139177 -0.00879545 0 -0.0138571 0.00894019
0 -0.002 0.0164411 0 0.002 0.0164411 0 0.0139177 0.00898702 0
-0.0154877 0.00590709 0 -0.005 -0.0158596 0 0.005 -0.0158596 0 0.0155453
0.00595189 0 -0.00451419 0.0160757 0 -0.000726854 0.0166828 0 0.000726854 0.0166828
0 0.0045263 0.0160846 0 -0.00319452 0.016524 0 0.00320133 0.016529 0
-0.00345386 -0.0165523 0 0.00345386 -0.0165523 0 -0.0138571 0.0098326 0 -0.00597213
0.0159359 0 0.00598764 0.0159474 0 -0.0154877 0.00710071 0 0.0139177 0.00987937
0 -0.00176404 -0.0169864 0 0.00176404 -0.0169864 0 0.0155453 0.00714543 0
-2.76391e-19 -0.0171343 0 -0.0171658 -0.000247278 0 0.0172162 -0.000207752 0 -0.0171658
0.00147028 0 -0.0154877 -0.0075518 0 0.0155453 -0.00750615 0 0.0172162 0.00150971
0 -0.0171658 -0.00209519 0 0.0172162 -0.00205556 0 0.0107879 -0.0135925 0
-0.0107333 -0.0136359 0 -0.00451419 0.0167597 0 0.0045263 0.0167686 0 -0.002
0.0173062 0 0.002 0.0173062 0 -0.0171658 0.00306667 0 -0.0122727 -0.0124125
0 0.00928347 -0.0147881 0 0.0123323 -0.0123652 0 -0.00923755 -0.0148246 0
0.0172162 0.00310601 0 -0.0154877 0.00821012 0 -0.00597213 0.0165208 0 0.00598764
0.0165323 0 0.0155453 0.00825477 0 -0.00319452 0.017324 0 0.00320133 0.017329
0 -0.0171658 -0.00408336 0 -0.000723266 0.0176555 0 0.000723266 0.0176555 0
0.0172162 -0.00404362 0 -0.0171658 0.00455044 0 0.00781802 -0.0159527 0 -0.00778421
-0.0159796 0 -0.0138571 -0.0111534 0 0.0139177 -0.0111052 0 0.0172162 0.0045897
0 -0.0154877 0.00924127 0 -0.00451419 0.0174994 0 0.0045263 0.0175084 0
0.0155453 0.00928585 0 -0.0171658 0.00592954 0 -0.00597213 0.0171533 0 0.00598764
0.0171648 0 0.0172162 0.00596872 0 0.00639053 -0.0170872 0 -0.00637208 -0.0171018
0 -0.0171658 -0.00622243 0 0.0172162 -0.00618257 0 -0.002 0.0182418 0
0.002 0.0182418 0 -0.0154877 -0.00985753 0 0.0155453 -0.00981172 0 -0.00319452
0.0181891 0 0.00320133 0.0181941 0 -0.0154877 0.0101997 0 0.0155453 0.0102442
0 -0.0171658 0.00721136 0 0.0172162 0.00725047 0 -0.000719385 0.0187075 0
0.000719385 0.0187075 0 -0.00758282 0.0171264 0 0.00759938 0.0171387 0 -0.00597213
0.0178373 0 0.00598764 0.0178488 0 -0.00451419 0.0182994 0 0.0045263 0.0183083
0 -0.005 -0.0181922 0 0.005 -0.0181922 0 -0.018893 -0.00073496 0
-0.018893 0.0011094 0 0.0189314 -0.000704684 0 0.0189314 0.0011396 0 -0.0154877
0.0110905 0 -0.018893 -0.0027193 0 -0.018893 0.00282365 0 -0.0171658 0.00840275
0 0.0189314 -0.00268894 0 0.0155453 0.0111349 0 0.0189314 0.00285377 0
-0.00344538 -0.0188361 0 0.00344538 -0.0188361 0 -0.0171658 -0.00852385 0 0.0172162
0.00844179 0 0.0172162 -0.00848386 0 -0.00758282 0.0177113 0 0.00759938 0.0177235
0 -0.0122727 -0.0149021 0 0.0123323 -0.0148546 0 -0.00175719 -0.0192397 0
[...]
CELL_DATA 15677
FIELD attributes 1
U 3 15677 float
-0.304863 10.2652 0 0.190468 10.9192 0 -0.101144 9.44687 0 0.0315469 10.9901
0 0.11883 10.7325 0 -0.011932 8.75882 0 0.0455145 11.0075 0
0.0144563 10.9817 0 0.0576982 10.4724 0 0.0115255 8.23004 0 0.0466767
11.0123 0 0.0433566 11.0312 0 0.0260647 10.929 0 0.0318941 10.1915
0 0.0113198 7.85701 0 0.0439894 11.0135 0 0.0423545 11.044 0
0.0427659 11.0213 0 0.0332094 10.861 0 0.0213595 9.90389 0 0.00643824
7.61297 0 0.0413501 11.0136 0 0.0403832 11.0463 0 0.0401496 11.0452
0 0.0398501 11.0056 0 0.0327997 10.7702 0 0.015944 9.63874 0
0.00250261 7.45991 0 0.0386035 11.0131 0 0.0389109 11.0454 0 0.0393045
11.0537 0 0.03844 11.0452 0 0.0358119 10.9836 0 0.0288423 10.6583
0 0.0121573 9.4137 0 0.000561411 7.36347 0 0.0355713 11.0123 0
0.0372741 11.0436 0 0.0386111 11.0564 0 0.038366 11.0594 0 0.0359954
11.0431 0 0.0318138 10.954 0 0.0240714 10.534 0 0.00901757 9.23875
0 1.57116e-05 7.30141 0 0.0322824 11.0113 0 0.035343 11.0412 0
0.0374944 11.0561 0 0.0377808 11.0647 0 0.0360428 11.0643 0 0.0328738
11.0377 0 0.0284047 10.9188 0 0.0194862 10.3995 0 0.00645687 9.10802
0 -0.000238617 7.25886 0 0.0287981 11.0101 0 0.0331868 11.0383 0
0.0360664 11.0544 0 0.036806 11.0659 0 0.0354595 11.0727 0 0.0329022
11.0675 0 0.0297931 11.0304 0 0.0254098 10.8774 0 0.0154634 10.2708
0 0.00440256 9.01318 0 -0.000470053 7.23446 0 0.0251922 11.0089 0
0.0308285 11.035 0 0.0343746 11.0518 0 0.0355542 11.0651 0 0.0345216
11.0756 0 0.0323272 11.0797 0 0.0297338 11.0702 0 0.0268195 11.0229
0 0.0222107 10.8322 0 0.0118421 10.1607 0 0.00266103 8.94727 0
-0.000674075 7.22297 0 0.0214916 11.0077 0 0.0282776 11.0313 0 0.0324104
11.0485 0 0.0340326 11.0629 0 0.0332905 11.0756 0 0.0313564 11.0845
0 0.0290549 11.0868 0 0.026605 11.0741 0 0.0235429 11.0161 0
0.0185182 10.7862 0 0.00844568 10.0719 0 0.00109464 8.90526 0 -0.00109125
7.22503 0 0.0177677 11.0065 0 0.0256096 11.0274 0 0.0301609 11.0446
0 0.0322244 11.0599 0 0.0317698 11.074 0 0.0300436 11.0857 0
0.0279009 11.0938 0 0.025669 11.0954 0 0.0231334 11.0802 0 0.0198628
11.0108 0 0.014398 10.7427 0 0.00513606 10.0067 0 -0.000547234 8.88431
0 -0.00171204 7.2404 0 0.0145632 11.0053 0 0.0228828 11.0234 0
0.0276454 11.0402 0 0.0301114 11.056 0 0.0299499 11.0713 0 0.0284045
11.0847 0 0.0263424 11.0962 0 0.02416 11.1049 0 0.021794 11.1067
0 0.0191198 11.0893 0 0.0156753 11.0081 0 0.00992114 10.7068 0
0.00166221 9.96414 0 -0.0022186 8.88244 0 -0.00237793 7.26941 0 0.0119706
11.0043 0 0.0202884 11.0197 0 0.0249118 11.0355 0 0.0276792 11.0515
0 0.0278143 11.0676 0 0.0264339 11.0823 0 0.0244044 11.096 0
0.02217 11.1086 0 0.0197714 11.1187 0 0.0172066 11.1215 0 0.0143805
11.1023 0 0.0107779 11.0096 0 0.00503151 10.6816 0 -0.00191966 9.94342
0 -0.00410754 8.89889 0 -0.00320307 7.3122 0 0.00981299 11.0035 0
0.0179768 11.0166 0 0.0222528 11.031 0 0.0249336 11.0463 0 0.0253426
11.0629 0 0.0241145 11.0788 0 0.022084 11.094 0 0.0197273 11.1091
0 0.017173 11.1238 0 0.0144931 11.1361 0 0.0117183 11.1405 0
0.00873156 11.1203 0 0.0050792 11.0173 0 -0.000330938 10.6698 0 -0.00578256
9.94345 0 -0.0061941 8.93261 0 -0.00411753 7.36894 0 0.00810082 11.0027
0 0.0158982 11.0138 0 0.0198494 11.027 0 0.0221906 11.0413 0
0.0225232 11.0575 0 0.0214246 11.0743 0 0.0193649 11.0907 0 0.0168295
11.1075 0 0.0140258 11.1249 0 0.0110848 11.1424 0 0.00811143 11.1578
0 0.005129 11.1648 0 0.0020645 11.1441 0 -0.00145284 11.0327 0
-0.00619421 10.6726 0 -0.00996648 9.96327 0 -0.00848966 8.98356 0 -0.00511132
7.43942 0 0.00670999 11.0022 0 0.0139736 11.0114 0 0.0176343 11.0235
0 0.0196567 11.0368 0 0.0196659 11.052 0 0.0183488 11.0687 0
0.0162269 11.0862 0 0.0134614 11.1043 0 0.0103243 11.1236 0 0.00700504
11.1442 0 0.00366049 11.1654 0 0.000398812 11.1847 0 -0.00271436 11.1951
0 -0.00570515 11.175 0 -0.00883855 11.0575 0 -0.0125952 10.6912 0
-0.0145036 10.0019 0 -0.0109783 9.05091 0 -0.00617281 7.52341 0 0.00555674
11.0017 0 0.0122264 11.0095 0 0.015575 11.0204 0 0.0172713 11.0327
0 0.0169964 11.047 0 0.0152195 11.0629 0 0.0126562 11.0805 0
0.00960616 11.0997 0 0.00605283 11.1205 0 0.00224365 11.1432 0 -0.00161403
11.1678 0 -0.00535578 11.1936 0 -0.00883331 11.2178 0 -0.0119321 11.2323
0 -0.0146274 11.214 0 -0.0171047 11.0929 0 -0.0195476 10.7259 0
-0.0193901 10.0588 0 -0.0136532 9.1342 0 -0.00728256 7.62024 0 0.00460896
11.0014 0 0.0106688 11.0079 0 0.0136796 11.0178 0 0.0150368 11.0291
0 0.0144647 11.0423 0 0.012291 11.0573 0 0.00903688 11.0743 0
0.00525603 11.0937 0 0.00119726 11.1157 0 -0.00321871 11.1399 0 -0.00773031
11.1669 0 -0.0121197 11.1965 0 -0.0161834 11.2278 0 -0.0197252 11.2576
0 -0.022598 11.2774 0 -0.0247415 11.262 0 -0.0262505 11.14 0
-0.027036 10.7769 0 -0.0246068 10.1329 0 -0.0164899 9.23261 0 -0.00844064
7.72924 0 0.00385534 11.0012 0 0.00926066 11.0067 0 0.0119416 11.0156
0 0.0129605 11.0258 0 0.0120885 11.038 0 0.00951714 11.052 0
0.00566275 11.0682 0 0.000880817 11.087 0 -0.00424147 11.1092 0 -0.00939486
11.1347 0 -0.0147142 11.1634 0 -0.0199234 11.1956 0 -0.0247668 11.2311
0 -0.0289947 11.2688 0 -0.0323819 11.3052 0 -0.0347653 11.3309 0
-0.0360486 11.3198 0 -0.0362449 11.1993 0 -0.0350337 10.8441 0 -0.0301319
10.2235 0 -0.0194729 9.34542 0 -0.00962783 7.84966 0 0.00327592 11.001
0 0.00805948 11.0057 0 0.0103584 11.0136 0 0.0110441 11.023 0
0.00988019 11.0341 0 0.00692451 11.0471 0 0.00248327 11.0623 0 -0.00317035
11.0803 0 -0.00967102 11.1018 0 -0.0162738 11.1276 0 -0.022579 11.1577
0 -0.0288028 11.1917 0 -0.0346312 11.2301 0 -0.0397637 11.2724 0
-0.0439227 11.3173 0 -0.0468739 11.361 0 -0.0484427 11.3937 0 -0.0485114
11.388 0 -0.0470267 11.2714 0 -0.0434971 10.9269 0 -0.0359258 10.3295
0 -0.0225609 9.47151 0 -0.010813 7.98028 0 0.00282556 11.0008 0
0.00707409 11.0049 0 0.0089718 11.012 0 0.00929131 11.0204 0 0.00784818
11.0306 0 0.00453216 11.0425 0 -0.000466548 11.0566 0 -0.0069595 11.0735
0 -0.0146649 11.0942 0 -0.0231004 11.1192 0 -0.0313031 11.1496 0
-0.038774 11.1852 0 -0.0458267 11.2257 0 -0.0521028 11.2711 0 -0.0572742
11.321 0 -0.0610577 11.374 0 -0.0632186 11.4258 0 -0.063592 11.4661
0 -0.0620578 11.4668 0 -0.0585135 11.3561 0 -0.0523604 11.0245 0
-0.0419172 10.4496 0 -0.025704 9.60962 0 -0.0119822 8.11984 0 0.00246918
11.0007 0 0.00626328 11.0044 0 0.00781686 11.0108 0 0.00776427 11.0183
0 0.00599828 11.0274 0 0.00235395 11.0382 0 -0.00315995 11.0511 0
-0.0104432 11.0669 0 -0.0193019 11.0864 0 -0.0293447 11.1104 0 -0.0399235
11.14 0 -0.0498047 11.176 0 -0.0583755 11.2182 0 -0.0660817 11.2659
0 -0.0725379 11.3193 0 -0.0774123 11.3777 0 -0.0804299 11.4394 0
-0.0813819 11.4999 0 -0.0801297 11.5485 0 -0.0765722 11.5565 0 -0.0705853
11.4533 0 -0.061516 11.136 0 -0.0480458 10.5825 0 -0.0288643 9.75838
0 -0.0131242 8.26701 0 0.00218273 11.0006 0 0.00559328 11.0039 0
0.0068609 11.0098 0 0.00650315 11.0165 0 0.00440372 11.0246 0 0.00039913
11.0342 0 -0.00557705 11.046 0 -0.0135865 11.0604 0 -0.0235288 11.0785
0 -0.0351086 11.1013 0 -0.0477766 11.1297 0 -0.0606736 11.1648 0
-0.072235 11.2074 0 -0.0817333 11.2572 0 -0.08981 11.3132 0 -0.0960793
11.3754 0 -0.100225 11.443 0 -0.102008 11.5139 0 -0.101269 11.5836
0 -0.0979237 11.6408 0 -0.0919229 11.6568 0 -0.0831179 11.5623 0
-0.0708549 11.2601 0 -0.0542393 10.7269 0 -0.0320054 9.91634 0 -0.0142182
8.42039 0 0.00194938 11.0006 0 0.00503545 11.0036 0 0.00606395 11.0089
0 0.00546727 11.0151 0 0.00310409 11.0222 0 -0.00125294 11.0307 0
-0.00770376 11.0411 0 -0.0163624 11.0541 0 -0.0273006 11.0707 0 -0.0403259
11.0919 0 -0.0549941 11.1189 0 -0.0705493 11.1527 0 -0.0858703 11.1942
0 -0.0990069 11.2446 0 -0.10914 11.303 0 -0.117189 11.3683 0
-0.122792 11.44 0 -0.125682 11.5173 0 -0.125689 11.5979 0 -0.122735
11.677 0 -0.116812 11.7431 0 -0.107928 11.7674 0 -0.0959701 11.6824
0 -0.0802886 11.3956 0 -0.0604175 10.8812 0 -0.0350882 10.0819 0
-0.015253 8.5785 0 0.00175708 11.0005 0 0.00456807 11.0033 0 0.00539586
11.0083 0 0.00461272 11.0138 0 0.00205291 11.0202 0 -0.00256763 11.0277
0 -0.00945308 11.0366 0 -0.0187511 11.0481 0 -0.0305816 11.0631 0
-0.0449395 11.0825 0 -0.0614939 11.1077 0 -0.0796007 11.1398 0 -0.0982427
11.1799 0 -0.115991 11.2291 0 -0.130471 11.2883 0 -0.140813 11.3563
0 -0.148308 11.4316 0 -0.152661 11.5135 0 -0.153686 11.6009 0
-0.151317 11.6914 0 -0.145583 11.7799 0 -0.136581 11.8549 0 -0.1244
11.8876 0 -0.108977 11.8127 0 -0.0897031 11.5409 0 -0.0665052 11.0438
0 -0.0380799 10.2536 0 -0.0162304 8.73995 0 0.00159703 11.0005 0
0.00417406 11.003 0 0.00483258 11.0077 0 0.00390511 11.0128 0 0.00120147
11.0186 0 -0.00360146 11.0251 0 -0.0107978 11.0328 0 -0.0206549 11.0425
0 -0.0333445 11.0556 0 -0.0489022 11.0731 0 -0.0672029 11.0962 0
-0.0877251 11.1262 0 -0.109567 11.1645 0 -0.131399 11.2122 0 -0.151452
11.27 0 -0.166899 11.3391 0 -0.176884 11.4177 0 -0.183172 11.5036
0 -0.185577 11.5962 0 -0.184046 11.6939 0 -0.178653 11.7943 0
-0.169566 11.8921 0 -0.156994 11.9757 0 -0.141139 12.0168 0 -0.121985
11.9518 0 -0.0989865 11.6946 0 -0.0724398 11.2131 0 -0.0409597 10.4297
0 -0.0170669 8.90363 0 0.00146268 11.0004 0 0.00383991 11.0028 0
0.00435479 11.0072 0 0.00331686 11.012 0 0.000510512 11.0172 0 -0.00441185
11.0229 0 -0.0118107 11.0295 0 -0.0220574 11.0377 0 -0.0354768 11.0486
0 -0.0521772 11.0638 0 -0.0720598 11.0846 0 -0.0948298 11.1122 0
-0.119716 11.1481 0 -0.145499 11.1937 0 -0.170497 11.25 0 -0.192589
11.3177 0 -0.20847 11.3977 0 -0.217364 11.4876 0 -0.221657 11.5847
0 -0.221329 11.6882 0 -0.2165 11.7963 0 -0.207418 11.9064 0
-0.194406 12.0131 0 -0.177809 12.1049 0 -0.15794 12.154 0 -0.134849
12.0986 0 -0.108039 11.8551 0 -0.0781775 11.3875 0 -0.0436592 10.609
0 -0.0183501 9.06675 0 0.00134905 11.0004 0 0.00355495 11.0027 0
0.00394881 11.0068 0 0.00282575 11.0112 0 -5.14892e-05 11.016 0 -0.00504513
11.021 0 -0.012563 11.0266 0 -0.0230543 11.0334 0 -0.0369756 11.0424
0 -0.0546311 11.0549 0 -0.0760151 11.0729 0 -0.100835 11.0978 0
-0.128571 11.131 0 -0.158134 11.1739 0 -0.187943 11.228 0 -0.215941
11.2941 0 -0.239622 11.3728 0 -0.255215 11.4646 0 -0.262141 11.5665
0 -0.263548 11.6751 0 -0.259634 11.7894 0 -0.250734 11.9077 0
-0.237294 12.0271 0 -0.21981 12.1422 0 -0.198772 12.2416 0 -0.174605
12.298 0 -0.147428 12.2518 0 -0.116787 12.0209 0 -0.083647 11.5655
0 -0.046804 10.7894 0 -0.0195422 9.25873 0 0.00125227 11.0004 0
0.00331079 11.0025 0 0.00360131 11.0065 0 0.00241373 11.0106 0 -0.000509765
11.0149 0 -0.00553842 11.0194 0 -0.0131124 11.0242 0 -0.0237373 11.0297
0 -0.037968 11.037 0 -0.0562772 11.0471 0 -0.0789068 11.0618 0
-0.105675 11.0833 0 -0.136029 11.1133 0 -0.169153 11.1531 0 -0.203593
11.2042 0 -0.23737 11.268 0 -0.268 11.3451 0 -0.292632 11.4357
0 -0.307048 11.5401 0 -0.310998 11.6544 0 -0.308536 11.7747 0
-0.300135 11.8998 0 -0.286375 12.0279 0 -0.267926 12.1559 0 -0.245469
12.2787 0 -0.219631 12.3848 0 -0.190945 12.4478 0 -0.159611 12.4098
0 -0.125138 12.1905 0 -0.0892275 11.7452 0 -0.0495537 10.9907 0
-0.019833 9.45577 0 0.00116926 11.0003 0 0.00310077 11.0024 0 0.00330141
11.0062 0 0.00206784 11.0101 0 -0.000884548 11.014 0 -0.0059213 11.018
0 -0.0135048 11.022 0 -0.0241797 11.0265 0 -0.0385727 11.0322 0
-0.0572833 11.0401 0 -0.0807668 11.0518 0 -0.10915 11.0694 0 -0.142004
11.0954 0 -0.178427 11.1316 0 -0.217262 11.1792 0 -0.256636 11.2398
0 -0.294112 11.3144 0 -0.326811 11.4036 0 -0.351566 11.5071 0
-0.363754 11.6246 0 -0.363593 11.7516 0 -0.35621 11.8835 0 -0.342396
12.019 0 -0.323005 12.1561 0 -0.298945 12.292 0 -0.271075 12.4215
0 -0.240147 12.5334 0 -0.206803 12.6021 0 -0.171274 12.5716 0
-0.133294 12.3621 0 -0.0945029 11.9459 0 -0.0513123 11.2114 0 -0.0201993
9.64818 0 0.00109751 11.0003 0 0.00291951 11.0023 0 0.00304301 11.006
0 0.00177606 11.0096 0 -0.00119188 11.0132 0 -0.0062173 11.0167 0
-0.0137764 11.0201 0 -0.0244401 11.0237 0 -0.0388849 11.028 0 -0.0578036
11.034 0 -0.0818142 11.043 0 -0.111311 11.0569 0 -0.146244 11.0781
0 -0.185839 11.1095 0 -0.22878 11.153 0 -0.273507 11.2097 0
-0.317664 11.281 0 -0.358369 11.3678 0 -0.392366 11.4701 0 -0.416218
11.5871 0 -0.424964 11.7182 0 -0.419468 11.8579 0 -0.406076 12.001
0 -0.385934 12.1463 0 -0.360189 12.2917 0 -0.32998 12.4346 0
-0.296331 12.5697 0 -0.260113 12.6864 0 -0.22202 12.7598 0 -0.182483
12.7353 0 -0.141433 12.5542 0 -0.0991549 12.1666 0 -0.0532353 11.4279
0 -0.0205903 9.83388 0 0.00103551 11.0003 0 0.0027623 11.0022 0
0.00281999 11.0057 0 0.00152812 11.0092 0 -0.00144469 11.0126 0 -0.00644507
11.0157 0 -0.013956 11.0185 0 -0.0245644 11.0212 0 -0.03898 11.0244
0 -0.0579616 11.0286 0 -0.0822481 11.0352 0 -0.112441 11.0456 0
-0.148821 11.0623 0 -0.191072 11.088 0 -0.237998 11.126 0 -0.287772
11.1782 0 -0.33837 11.2453 0 -0.386951 11.3287 0 -0.430187 11.4288
0 -0.464481 11.5451 0 -0.486214 11.6762 0 -0.490183 11.8209 0
-0.478071 11.9731 0 -0.45758 12.1269 0 -0.43024 12.2811 0 -0.397485
12.4339 0 -0.36067 12.5826 0 -0.320971 12.7222 0 -0.279322 12.8426
0 -0.23655 12.9193 0 -0.193913 12.9189 0 -0.149106 12.766 0
-0.10358 12.384 0 -0.0550707 11.6379 0 -0.020907 10.0115 0 0.00262469
11.0021 0 0.00096121 11.0003 0 0.00262544 11.0055 0 0.00131685 11.0088
0 -0.00165326 11.012 0 -0.00661937 11.0148 0 -0.0140659 11.0171 0
-0.0245885 11.0191 0 -0.0389168 11.0211 0 -0.0578547 11.0239 0 -0.0822283
11.0282 0 -0.112794 11.0357 0 -0.150094 11.0482 0 -0.194217 11.0684
0 -0.244511 11.0996 0 -0.299235 11.1455 0 -0.355967 11.2077 0
-0.412209 11.2867 0 -0.464609 11.3834 0 -0.509426 11.4978 0 -0.542797
11.6288 0 -0.561036 11.7743 0 -0.5588 11.9327 0 -0.538771 12.0967
0 -0.510131 12.2604 0 -0.47479 12.4226 0 -0.434459 12.5816 0
-0.390684 12.7349 0 -0.34474 12.878 0 -0.297644 13.0007 0 -0.25157
13.0983 0 -0.205033 13.1214 0 -0.156053 12.975 0 -0.107556 12.5956
0 -0.0566189 11.8396 0 -0.0211309 10.1806 0 0.00245289 11.0054 0
0.00246371 11.0021 0 0.000871936 11.0003 0 0.001135 11.0085 0 -0.00182577
11.0115 0 -0.00675154 11.0139 0 -0.0141239 11.0158 0 -0.0245404 11.0172
0 -0.0387415 11.0183 0 -0.0575594 11.0197 0 -0.0818807 11.0221 0
-0.112577 11.0268 0 -0.150386 11.0356 0 -0.195722 11.0508 0 -0.248423
11.0755 0 -0.307382 11.1134 0 -0.370201 11.1685 0 -0.433812 11.2422
0 -0.495211 11.3345 0 -0.550557 11.4457 0 -0.595756 11.5753 0
-0.626789 11.7215 0 -0.640027 11.8814 0 -0.630107 12.0531 0 -0.600884
12.2283 0 -0.563113 12.4009 0 -0.519069 12.5698 0 -0.470705 12.7338
0 -0.419706 12.8906 0 -0.367433 13.0357 0 -0.316734 13.178 0
-0.266463 13.2957 0 -0.21499 13.3214 0 -0.162221 13.1788 0 -0.110926
12.7996 0 -0.0578698 12.0323 0 -0.0212565 10.3408 0 0.000972887 11.0082
0 0.00226444 11.0051 0 0.00226245 11.0019 0 0.000786079 11.0002 4.26893e-19
-0.00197046 11.011 0 -0.00685041 11.0132 0 -0.0141431 11.0147 0 -0.0244416
11.0155 0 -0.0384892 11.0158 0 -0.0571345 11.016 0 -0.0813039 11.0167
0 -0.111949 11.019 0 -0.149958 11.0244 0 -0.195993 11.035 0
-0.250287 11.0537 0 -0.31232 11.0839 0 -0.380419 11.1298 0 -0.45144
11.1956 0 -0.521586 11.2823 0 -0.587373 11.3892 0 -0.644518 11.5161
0 -0.688668 11.6617 0 -0.715777 11.8233 0 -0.722415 11.9975 0
-0.703328 12.1817 0 -0.663698 12.3671 0 -0.615916 12.5474 0 -0.562585
12.7218 0 -0.505842 12.8895 0 -0.44747 13.0483 0 -0.391196 13.2127
0 -0.33591 13.3736 0 -0.279767 13.4907 0 -0.223823 13.5167 0
-0.167503 13.3757 0 -0.113714 12.9952 0 -0.0588431 12.2155 0 -0.0212871
10.4918 0 -0.00210232 11.0106 0 0.000813361 11.0079 0 0.00204027 11.0049
1.86896e-18 0.00206761 11.0018 -1.35164e-18 0.000703355 11.0002 -8.66379e-19 -0.00692475 11.0126 0
-0.0141332 11.0138 0 -0.0243082 11.0141 0 -0.0381873 11.0136 0 -0.0566255
11.0127 0 -0.0805737 11.0119 0 -0.111039 11.0121 0 -0.149016 11.0144
0 -0.195357 11.0209 0 -0.250606 11.0341 0 -0.314719 11.0572 0
-0.386714 11.0941 0 -0.464262 11.1494 0 -0.543332 11.2275 0 -0.619379
11.3288 0 -0.688487 11.4516 0 -0.746014 11.5951 0 -0.787474 11.757
0 -0.808939 11.934 0 -0.807339 12.122 0 -0.777644 12.3179 0
-0.726498 12.5123 0 -0.667956 12.6989 0 -0.604878 12.8776 0 -0.539535
13.0475 0 -0.47665 13.2255 0 -0.415281 13.4081 0 -0.353085 13.567
0 -0.291559 13.6814 0 -0.231448 13.7057 0 -0.171925 13.5649 0
-0.115967 13.1817 0 -0.0595655 12.3888 0 -0.0212355 10.6334 0 -0.00699682
11.012 0 -0.00219376 11.0101 -3.78258e-18 0.000635474 11.0074 -1.9679e-18 0.00182281 11.0046
9.48819e-19 0.0018759 11.0017 -9.1402e-19 0.000623884 11.0002 0 -0.0141035 11.0129 0
-0.0241512 11.0128 0 -0.0378553 11.0117 0 -0.0560668 11.0099 0 -0.0797483
11.0077 0 -0.109943 11.0059 0 -0.14772 11.0056 0 -0.194073 11.0084
0 -0.249785 11.0166 0 -0.315195 11.0331 0 -0.389888 11.0616 0
-0.472333 11.1066 0 -0.559396 11.173 0 -0.646075 11.265 0 -0.727075
11.3823 0 -0.798138 11.5222 0 -0.854379 11.6829 0 -0.891327 11.8615
0 -0.905343 12.0536 0 -0.89387 12.2546 0 -0.852215 12.4609 0
-0.788587 12.663 0 -0.718684 12.8546 0 -0.645542 13.0359 0 -0.575064
13.2252 0 -0.506422 13.4214 0 -0.43693 13.6014 0 -0.368325 13.7562
0 -0.301786 13.8661 0 -0.237888 13.8874 0 -0.17555 13.7455 0
-0.117731 13.3587 0 -0.0600686 12.5521 0 -0.0211161 10.7658 0 -0.0140869
11.0122 0 -0.00697395 11.0114 7.96093e-18 -0.00225619 11.0095 0 0.000463558 11.007
1.9965e-18 0.00161317 11.0043 6.1655e-22 0.00168904 11.0016 0 0.000547733 11.0002 0
-0.0239804 11.0117 0 -0.0375063 11.01 0 -0.0554832 11.0074 0 -0.0788718
11.004 0 -0.108736 11.0005 0 -0.146196 10.9978 0 -0.192346 10.9973
0 -0.248151 11.001 0 -0.314248 11.0115 0 -0.390685 11.0323 0
-0.476599 11.0676 0 -0.569764 11.1222 0 -0.666136 11.2011 0 -0.759666
11.3087 0 -0.844343 11.4435 0 -0.915706 11.6014 0 -0.968769 11.7799
0 -0.999252 11.975 0 -1.00398 12.1817 0 -0.981048 12.3946 0
-0.926212 12.6101 0 -0.849304 12.8183 0 -0.767602 13.0132 0 -0.68857
13.2142 0 -0.611494 13.4219 0 -0.533289 13.6153 0 -0.456172 13.7906
0 -0.381604 13.9396 0 -0.310477 14.0439 0 -0.243223 14.0612 0
-0.178447 13.9172 0 -0.119061 13.5259 0 -0.0603833 12.7054 0 -0.0209419
10.8892 0 -0.0238437 11.0107 0 -0.0138979 11.0113 2.78516e-22 -0.00683987 11.0106
0 -0.00231585 11.0089 -2.10067e-18 0.000300859 11.0066 4.73559e-22 0.00141107 11.0041 0
0.00150737 11.0015 0 0.000474901 11.0002 0 -0.0371507 11.0085 0 -0.0548901
11.0051 0 -0.0779758 11.0007 0 -0.107474 10.9957 0 -0.144537 10.9909
0 -0.190332 10.9874 0 -0.245956 10.9871 0 -0.312278 10.9923 0
-0.389712 11.006 0 -0.477949 11.0323 0 -0.575534 11.0757 0 -0.679436
11.1414 0 -0.784602 11.2347 0 -0.883883 11.3595 0 -0.970637 11.513
0 -1.04037 11.6897 0 -1.08819 11.8862 0 -1.11018 12.0974 0
-1.10379 12.3177 0 -1.06792 12.5412 0 -0.99884 12.7643 0 -0.908038
12.9769 0 -0.819535 13.1922 0 -0.732871 13.4121 0 -0.644507 13.6169
0 -0.55723 13.8053 0 -0.472998 13.9742 0 -0.392966 14.1164 0
-0.317733 14.2141 0 -0.24755 14.2266 0 -0.180689 14.0796 0 -0.120009
13.6833 0 -0.0605372 12.8489 0 -0.0207243 11.0039 0 -0.0368574 11.0072
0 -0.0234266 11.0095 -4.40234e-18 -0.0134717 11.0102 0 -0.00670917 11.0098 0
-0.00236205 11.0083 6.39002e-18 0.000146915 11.0062 0 0.0012157 11.0039 0 0.00132977
11.0014 1.90467e-18 0.000405394 11.0002 0 -0.0542987 11.0031 0 -0.0770787 10.9978
0 -0.106197 10.9914 0 -0.142817 10.9848 0 -0.188152 10.9787 0
-0.243399 10.9748 0 -0.3096 10.9751 0 -0.387459 10.9824 0 -0.477111
11.0004 0 -0.577752 11.0334 0 -0.687229 11.0866 0 -0.801596 11.1652
0 -0.914705 11.2746 0 -1.01828 11.418 0 -1.1052 11.5913 0
-1.17115 11.7874 0 -1.21151 12.0017 0 -1.22296 12.2283 0 -1.20371
12.461 0 -1.15359 12.6938 0 -1.06937 12.9226 0 -0.970599 13.1566
0 -0.873195 13.3913 0 -0.773159 13.6084 0 -0.674006 13.8081 0
-0.578243 13.9898 0 -0.487468 14.1512 0 -0.402525 14.2857 0 -0.323676
14.3763 0 -0.25097 14.3833 0 -0.182354 14.2328 0 -0.120626 13.8311
0 -0.060556 12.9829 0 -0.0204742 11.1103 0 -0.0538069 11.0014 0
-0.0361362 11.0057 0 -0.0225893 11.0082 -4.81085e-18 -0.0130605 11.0092 -4.64311e-18 -0.00655889
11.009 -8.95679e-18 -0.00239493 11.0078 0 1.86838e-06 11.0058 -4.16073e-18 0.00102798 11.0036
-4.00756e-18 0.00115686 11.0013 1.92884e-18 0.000339118 11.0001 0 -0.0761926 10.9952 0
-0.104928 10.9877 0 -0.141085 10.9793 0 -0.185897 10.9709 0 -0.240632
10.9638 0 -0.306462 10.9598 0 -0.384313 10.9613 0 -0.474677 10.9718
0 -0.577284 10.9953 0 -0.69073 11.0366 0 -0.812052 11.1011 0