# vtk DataFile Version 2.0
sampleSurface
ASCII
DATASET POLYDATA
POINTS 15978 float
-4.26165e-19 0.000133477 0 -4.18079e-19 -0.000798814 0 -4.33681e-19 0.001 0 -4.09379e-19 -0.00180187
0 -0.00181681 0.000361473 0 0.00181681 0.000361473 0 -0.00181396 -0.000575145 0
0.00181396 -0.000575145 0 -0.00181945 0.00123202 0 0.00181945 0.00123202 0 -0.00181089
-0.00158285 0 0.00181089 -0.00158285 0 -4.00018e-19 -0.00288105 0 -0.00180759 -0.00266704
0 0.00180759 -0.00266704 0 -0.00351565 8.15481e-05 0 0.00351565 8.15481e-05 0
-0.00351186 -0.000939823 0 0.00351186 -0.000939823 0 -0.00351918 0.00103087 0 0.00351918
0.00103087 0 -0.00352245 0.00191322 0 0.00352245 0.00191322 0 -3.89947e-19 -0.00404214
0 -0.00350777 -0.00203871 0 0.00350777 -0.00203871 0 -0.00180405 -0.00383352 0
0.00180405 -0.00383352 0 -0.00350338 -0.00322101 0 0.00350338 -0.00322101 0 -0.005
8.60602e-05 0 0.005 8.60602e-05 0 -0.005 -0.00103629 0 0.005 -0.00103629
0 -0.005 0.00112923 0 0.005 0.00112923 0 -3.79112e-19 -0.00529135 0
-0.00180023 -0.00508853 0 0.00180023 -0.00508853 0 -0.005 0.00209882 0 0.005
0.00209882 0 -0.005 -0.00224382 0 0.005 -0.00224382 0 -0.00349866 -0.00449304
0 0.00349866 -0.00449304 0 -0.005 0.003 0 0.005 0.003 0
-0.005 -0.003543 0 0.005 -0.003543 0 -0.00637208 2.82617e-05 0 0.00639053
4.25732e-05 0 -0.00637208 0.00114892 0 -0.00637208 -0.00117745 0 0.00639053 -0.00116311
0 0.00639053 0.00116321 0 -3.67455e-19 -0.00663538 0 -0.00179612 -0.00643879 0
0.00179612 -0.00643879 0 -0.00637208 0.00219052 0 0.00639053 0.00220479 0 -0.00349357
-0.00586162 0 0.00349357 -0.00586162 0 -0.00637208 -0.00247467 0 0.00639053 -0.00246031
0 -0.005 -0.00494079 0 0.005 -0.00494079 0 -0.00637208 0.00315864 0
0.00639053 0.00317289 0 -0.00637208 -0.00387036 0 0.00639053 -0.00385597 0 -0.00637208
0.00405846 0 0.00639053 0.00407269 0 -0.00778421 -7.99569e-05 0 0.00781802 -5.3679e-05
0 -0.00778421 0.00112388 0 0.00781802 0.00115011 0 -0.00778421 -0.00137517 0
0.00781802 -0.00134884 0 -3.54912e-19 -0.00808142 0 -0.0017917 -0.00789154 0 0.0017917
-0.00789154 0 -0.00778421 0.0022428 0 -0.0034881 -0.00733407 0 0.0034881 -0.00733407
0 0.00781802 0.00226899 0 -0.005 -0.00644467 0 0.005 -0.00644467 0
-0.00778421 -0.00276868 0 0.00781802 -0.0027423 0 -0.00637208 -0.00537197 0 0.00639053
-0.00535755 0 -0.00778421 0.00328278 0 0.00781802 0.00330893 0 -0.00778421 0.00424939
0 -0.00778421 -0.00426796 0 0.00781802 -0.00424152 0 0.00781802 0.00427551 0
-0.00923755 -0.000243565 0 0.00928347 -0.000207818 0 -0.00923755 0.00104957 0 -0.00778421
0.00514782 0 0.00928347 0.00108525 0 0.00781802 0.0051739 0 -0.00923755 -0.00163485
0 0.00928347 -0.00159903 0 -0.00637208 -0.00698755 0 0.00639053 -0.0069731 0
-0.005 -0.0080627 0 0.005 -0.0080627 0 -0.00923755 0.00225148 0 0.00928347
0.0022871 0 -0.00348222 -0.00891827 0 0.00348222 -0.00891827 0 -0.00178695 -0.00945455
0 0.00178695 -0.00945455 0 -3.41418e-19 -0.00963721 0 -0.00923755 -0.00313172 0
-0.00778421 -0.00588103 0 0.00781802 -0.00585453 0 0.00928347 -0.00309583 0 -0.00923755
0.0033686 0 0.00928347 0.00340416 0 -0.00923755 0.00440692 0 0.00928347 0.00444243
0 -0.00923755 -0.00474221 0 0.00928347 -0.00470623 0 -0.00923755 0.00537198 0
-0.0107333 -0.000467921 0 0.00928347 0.00540745 0 -0.0107333 0.000921062 0 0.0107879
-0.000425364 0 0.00639053 -0.00871127 0 -0.00637208 -0.00872575 0 0.0107879 0.000963535
0 -0.00778421 -0.00761653 0 0.00781802 -0.00758997 0 -0.0107333 -0.00196233 0
0.0107879 -0.00191968 0 -0.0107333 0.00221206 0 -0.005 -0.00980352 0 0.005
-0.00980352 0 0.0107879 0.00225445 0 -0.00923755 0.00626897 0 -0.00347589 -0.0106227
0 0.00347589 -0.0106227 0 0.00928347 0.00630439 0 -0.0107333 0.00341198 0
-0.00178183 -0.0111362 0 0.00178183 -0.0111362 0 -0.00923755 -0.00647493 0 0.00928347
-0.00643887 0 -3.26899e-19 -0.0113111 0 -0.0107333 -0.00357015 0 0.0107879 0.00345431
0 0.0107879 -0.00352741 0 -0.0107333 0.00452726 0 0.0107879 0.00456952 0
-0.0107333 -0.00530001 0 0.0107879 -0.00525717 0 -0.0107333 0.00556386 0 0.0107879
0.00560606 0 -0.000743369 0.0122055 0 0.000743369 0.0122055 0 -0.00778421 -0.00948375
0 0.00781802 -0.00945713 0 -0.0122727 0.000733061 0 -0.0122727 -0.000758799 0
0.0123323 -0.000712262 0 0.0123323 0.0007795 0 0.00639053 -0.0105814 0 -0.00637208
-0.0105959 0 -0.00923755 -0.00833916 0 -0.0122727 0.00211968 0 0.00928347 -0.00830301
0 -0.0122727 -0.00236389 0 0.0123323 0.00216603 0 0.0123323 -0.00231725 0
-0.0107333 0.00652734 0 0.0107879 0.00656947 0 -0.005 -0.0116765 0 0.005
-0.0116765 0 -0.0122727 0.00340848 0 0.0123323 0.00345474 0 -0.000741126 0.0128136
0 0.000741126 0.0128136 0 -0.0107333 -0.00716117 0 0.0107879 -0.00711821 0
-0.00346908 -0.0124565 0 0.00346908 -0.0124565 0 -0.0122727 -0.00409081 0 0.0123323
-0.00404405 0 -0.0107333 0.00742284 0 -0.00177633 -0.0129455 0 0.00177633 -0.0129455
0 -0.0122727 0.00460636 0 -3.11279e-19 -0.013112 0 0.0107879 0.00746492 0
-0.002 0.013 0 0.002 0.013 0 0.0123323 0.00465255 0 -0.0007387
0.0134712 0 0.0007387 0.0134712 0 -0.0122727 0.00571974 0 0.0123323 0.00576585
0 -0.0122727 -0.00594879 0 0.0123323 -0.00590191 0 -0.002 0.0135849 0
0.002 0.0135849 0 -0.0138571 0.000479853 0 -0.00923755 -0.0103449 0 0.00928347
-0.0103086 0 0.00781802 -0.011466 0 -0.00778421 -0.0114927 0 -0.0138571 -0.00112242
0 0.0139177 0.000527252 0 0.0139177 -0.00107491 0 -0.0138571 0.0019691 0
-0.0122727 0.00675458 0 0.0139177 0.00201639 0 0.0123323 0.00680062 0 -0.0107333
-0.00916358 0 0.00639053 -0.0125934 0 0.0107879 -0.0091205 0 -0.00637208 -0.012608
0 -0.0138571 -0.0028463 0 0.0139177 -0.00279868 0 -0.000736077 0.0141824 0
0.000736077 0.0141824 0 -0.00319452 0.0138829 0 0.00320133 0.0138879 0 -0.0138571
0.00335328 0 0.0139177 0.00340049 0 -0.002 0.0142174 0 0.002 0.0142174
0 -0.0122727 0.00771641 0 0.0123323 0.00776239 0 -0.005 -0.0136916 0
0.005 -0.0136916 0 -0.0138571 0.00463982 0 -0.0122727 -0.0079478 0 -0.0138571
-0.00470103 0 0.0123323 -0.00790078 0 0.0139177 -0.00465328 0 0.0139177 0.00468694
0 -0.00319452 0.0144678 0 0.00320133 0.0144728 0 -0.00346175 -0.0144295 0
0.00346175 -0.0144295 0 -0.00073324 0.0149515 0 0.00073324 0.0149515 0 -0.0122727
0.00861039 0 -0.00177041 -0.0148921 0 0.00177041 -0.0148921 0 -0.002 0.0149014
0 0.002 0.0149014 0 -0.0138571 0.0058356 0 -2.94473e-19 -0.0150496 0
0.0123323 0.00865631 0 0.0139177 0.00588264 0 -0.0138571 -0.00669653 0 0.0139177
-0.00664864 0 -0.00319452 0.0151003 0 0.00320133 0.0151053 0 -0.0154877 0.000155282
0 -0.0138571 0.00694702 0 -0.00451419 0.0148583 0 0.0045263 0.0148673 0
0.00928347 -0.0124665 0 -0.00923755 -0.0125028 0 0.0155453 0.000200444 0 -0.0154877
-0.00156548 0 0.0139177 0.00699399 0 -0.0154877 0.00175466 0 -0.0107333 -0.011318
0 0.0107879 -0.0112748 0 0.0155453 -0.00152021 0 0.0155453 0.00179972 0
0.00781802 -0.0136273 0 -0.00778421 -0.0136541 0 -0.002 0.0156411 0 0.002
0.0156411 0 -0.000730172 0.0157833 0 0.000730172 0.0157833 0 -0.0154877 0.0032412
0 -0.0154877 -0.00341685 0 0.0155453 0.00328617 0 -0.0122727 -0.0100985 0
0.0155453 -0.00337146 0 0.0123323 -0.0100514 0 -0.0138571 0.00798004 0 0.0139177
0.00802694 0 0.00639053 -0.0147581 0 -0.00637208 -0.0147727 0 -0.00451419 0.0154432
0 0.0045263 0.0154521 0 -0.00319452 0.0157843 0 0.00320133 0.0157893 0
-0.0154877 0.00462288 0 0.0155453 0.00466776 0 -0.0154877 -0.00540874 0 -0.0138571
-0.00884348 0 0.0155453 -0.00536322 0 0.0139177 -0.00879545 0 -0.0138571 0.00894019
0 -0.002 0.0164411 0 0.002 0.0164411 0 0.0139177 0.00898702 0
-0.0154877 0.00590709 0 -0.005 -0.0158596 0 0.005 -0.0158596 0 0.0155453
0.00595189 0 -0.00451419 0.0160757 0 -0.000726854 0.0166828 0 0.000726854 0.0166828
0 0.0045263 0.0160846 0 -0.00319452 0.016524 0 0.00320133 0.016529 0
-0.00345386 -0.0165523 0 0.00345386 -0.0165523 0 -0.0138571 0.0098326 0 -0.00597213
0.0159359 0 0.00598764 0.0159474 0 -0.0154877 0.00710071 0 0.0139177 0.00987937
0 -0.00176404 -0.0169864 0 0.00176404 -0.0169864 0 0.0155453 0.00714543 0
-2.76391e-19 -0.0171343 0 -0.0171658 -0.000247278 0 0.0172162 -0.000207752 0 -0.0171658
0.00147028 0 -0.0154877 -0.0075518 0 0.0155453 -0.00750615 0 0.0172162 0.00150971
0 -0.0171658 -0.00209519 0 0.0172162 -0.00205556 0 0.0107879 -0.0135925 0
-0.0107333 -0.0136359 0 -0.00451419 0.0167597 0 0.0045263 0.0167686 0 -0.002
0.0173062 0 0.002 0.0173062 0 -0.0171658 0.00306667 0 -0.0122727 -0.0124125
0 0.00928347 -0.0147881 0 0.0123323 -0.0123652 0 -0.00923755 -0.0148246 0
0.0172162 0.00310601 0 -0.0154877 0.00821012 0 -0.00597213 0.0165208 0 0.00598764
0.0165323 0 0.0155453 0.00825477 0 -0.00319452 0.017324 0 0.00320133 0.017329
0 -0.0171658 -0.00408336 0 -0.000723266 0.0176555 0 0.000723266 0.0176555 0
0.0172162 -0.00404362 0 -0.0171658 0.00455044 0 0.00781802 -0.0159527 0 -0.00778421
-0.0159796 0 -0.0138571 -0.0111534 0 0.0139177 -0.0111052 0 0.0172162 0.0045897
0 -0.0154877 0.00924127 0 -0.00451419 0.0174994 0 0.0045263 0.0175084 0
0.0155453 0.00928585 0 -0.0171658 0.00592954 0 -0.00597213 0.0171533 0 0.00598764
0.0171648 0 0.0172162 0.00596872 0 0.00639053 -0.0170872 0 -0.00637208 -0.0171018
0 -0.0171658 -0.00622243 0 0.0172162 -0.00618257 0 -0.002 0.0182418 0
0.002 0.0182418 0 -0.0154877 -0.00985753 0 0.0155453 -0.00981172 0 -0.00319452
0.0181891 0 0.00320133 0.0181941 0 -0.0154877 0.0101997 0 0.0155453 0.0102442
0 -0.0171658 0.00721136 0 0.0172162 0.00725047 0 -0.000719385 0.0187075 0
0.000719385 0.0187075 0 -0.00758282 0.0171264 0 0.00759938 0.0171387 0 -0.00597213
0.0178373 0 0.00598764 0.0178488 0 -0.00451419 0.0182994 0 0.0045263 0.0183083
0 -0.005 -0.0181922 0 0.005 -0.0181922 0 -0.018893 -0.00073496 0
-0.018893 0.0011094 0 0.0189314 -0.000704684 0 0.0189314 0.0011396 0 -0.0154877
0.0110905 0 -0.018893 -0.0027193 0 -0.018893 0.00282365 0 -0.0171658 0.00840275
0 0.0189314 -0.00268894 0 0.0155453 0.0111349 0 0.0189314 0.00285377 0
-0.00344538 -0.0188361 0 0.00344538 -0.0188361 0 -0.0171658 -0.00852385 0 0.0172162
0.00844179 0 0.0172162 -0.00848386 0 -0.00758282 0.0177113 0 0.00759938 0.0177235
0 -0.0122727 -0.0149021 0 0.0123323 -0.0148546 0 -0.00175719 -0.0192397 0
[...]
CELL_DATA 15677
FIELD attributes 1
U 3 15677 float
-0.304683 10.2653 0 0.190329 10.9192 0 -0.101047 9.44721 0 0.0315941 10.9901
0 0.118752 10.7323 0 -0.0119142 8.75919 0 0.0455182 11.0075 0
0.0144947 10.9815 0 0.0576366 10.4722 0 0.011438 8.23154 0 0.0466826
11.0122 0 0.0433635 11.031 0 0.0260467 10.9287 0 0.0317323 10.1917
0 0.0110714 7.86246 0 0.0440055 11.0135 0 0.0423791 11.0438 0
0.0427243 11.0209 0 0.0329995 10.8608 0 0.0210106 9.90696 0 0.00611349
7.62622 0 0.0413725 11.0135 0 0.0404196 11.0461 0 0.0401244 11.0449
0 0.0396324 11.0052 0 0.0322247 10.7708 0 0.0152952 9.64688 0
0.00212067 7.48258 0 0.0386337 11.0131 0 0.0389606 11.0453 0 0.0392927
11.0534 0 0.0382231 11.0448 0 0.0352089 10.9833 0 0.0277754 10.6619
0 0.0111587 9.43314 0 0.000240104 7.39935 0 0.03561 11.0123 0
0.0373418 11.0435 0 0.0386156 11.056 0 0.0381639 11.0589 0 0.0353712
11.0425 0 0.0305466 10.9546 0 0.0221959 10.5447 0 0.00754918 9.27597
0 -0.000552329 7.3533 0 0.0323302 11.0113 0 0.0354303 11.041 0
0.0375195 11.0557 0 0.0375944 11.0641 0 0.0354241 11.0636 0 0.0315597
11.0373 0 0.0260479 10.9214 0 0.0166389 10.4251 0 0.00454177 9.16935
0 -0.000826622 7.33349 0 0.0288569 11.0101 0 0.0332976 11.0381 0
0.0361162 11.054 0 0.0366405 11.0653 0 0.0348543 11.072 0 0.0315796
11.0668 0 0.0273241 11.0305 0 0.0215014 10.8849 0 0.0115186 10.3206
0 0.00214484 9.10354 0 -0.000941236 7.32985 0 0.0252662 11.0089 0
0.0309663 11.0348 0 0.0344539 11.0514 0 0.035415 11.0645 0 0.0339378
11.0748 0 0.0310137 11.0788 0 0.02725 11.0695 0 0.0226914 11.024
0 0.016566 10.8491 0 0.00696609 10.2407 0 0.000194806 9.07042 0
-0.00135236 7.34049 0 0.0215644 11.0077 0 0.0284439 11.0312 0 0.0325247
11.0481 0 0.0339255 11.0623 0 0.0327354 11.0748 0 0.0300662 11.0835
0 0.0265926 11.0857 0 0.0224517 11.0733 0 0.017444 11.0193 0
0.0112361 10.8182 0 0.00283908 10.1896 0 -0.00157804 9.06403 0 -0.00188764
7.36598 0 0.017859 11.0065 0 0.0258263 11.0273 0 0.0303152 11.0442
0 0.032156 11.0593 0 0.0312514 11.0732 0 0.0287895 11.0846 0
0.0254864 11.0925 0 0.0215698 11.0939 0 0.0169677 11.0793 0 0.0116874
11.0177 0 0.00561965 10.7969 0 -0.00107565 10.1667 0 -0.00335821 9.07931
0 -0.00252336 7.4052 0 0.0146656 11.0053 0 0.0231396 11.0233 0
0.0278496 11.0398 0 0.0300889 11.0554 0 0.0294772 11.0704 0 0.0271994
11.0836 0 0.0239973 11.0948 0 0.020165 11.103 0 0.0157184 11.1044
0 0.0107894 11.0884 0 0.00543432 11.0213 0 -0.000168215 10.7894 0
-0.00494456 10.1686 0 -0.00520821 9.1136 0 -0.00321742 7.45751 0 0.0120849
11.0043 0 0.0205899 11.0196 0 0.0251686 11.0351 0 0.027711 11.0508
0 0.0273973 11.0666 0 0.0252917 11.0811 0 0.0221495 11.0944 0
0.018316 11.1065 0 0.0138739 11.1157 0 0.0089914 11.1179 0 0.00385255
11.1019 0 -0.00135116 11.0323 0 -0.00604331 10.7975 0 -0.0088345 10.1928
0 -0.00716617 9.16563 0 -0.00398685 7.52247 0 0.00993311 11.0034 0
0.0183191 11.0164 0 0.0225637 11.0306 0 0.0250286 11.0457 0 0.0249921
11.062 0 0.0230505 11.0776 0 0.0199415 11.0924 0 0.0160479 11.1068
0 0.0115155 11.1204 0 0.00653148 11.1314 0 0.00131084 11.1355 0
-0.00387567 11.1211 0 -0.00856884 11.0523 0 -0.0120294 10.8215 0 -0.0128278
10.2366 0 -0.0092316 9.2337 0 -0.00484292 7.59972 0 0.00824704 11.0027
0 0.0162837 11.0137 0 0.0202092 11.0267 0 0.0223515 11.0407 0
0.0222523 11.0566 0 0.0204564 11.073 0 0.0173592 11.089 0 0.0133589
11.1051 0 0.00866172 11.1213 0 0.00347493 11.1372 0 -0.00196894 11.1509
0 -0.00737933 11.1582 0 -0.0122959 11.1471 0 -0.0161565 11.0824 0
-0.0181799 10.8607 0 -0.0169948 10.2979 0 -0.0114368 9.31658 0 -0.00577628
7.68905 0 0.00686299 11.0021 0 0.0143811 11.0113 0 0.0180422 11.0232
0 0.0198805 11.0362 0 0.0194805 11.0512 0 0.0174957 11.0674 0
0.0143854 11.0844 0 0.0102367 11.1018 0 0.00530614 11.1199 0 -0.000170989
11.1387 0 -0.00594886 11.1577 0 -0.0117179 11.1752 0 -0.0170257 11.1869
0 -0.0213499 11.1812 0 -0.0241239 11.1236 0 -0.0245667 10.9147 0
-0.0214053 10.3756 0 -0.0138075 9.41361 0 -0.00677139 7.79003 0 0.00572245
11.0017 0 0.0126842 11.0094 0 0.0160263 11.0201 0 0.0175565 11.0322
0 0.0168954 11.0461 0 0.0144911 11.0616 0 0.0110088 11.0787 0
0.00666862 11.0971 0 0.00143575 11.1166 0 -0.00442087 11.1374 0 -0.0106355
11.1597 0 -0.0168852 11.1828 0 -0.0227104 11.2053 0 -0.0276016 11.2228
0 -0.0310574 11.2242 0 -0.0325408 11.1762 0 -0.0312821 10.983 0
-0.0260927 10.4684 0 -0.0163343 9.52415 0 -0.00780784 7.90216 0 0.00478665
11.0014 0 0.0111602 11.0078 0 0.014167 11.0175 0 0.0153836 11.0285
0 0.0144481 11.0415 0 0.0116875 11.0561 0 0.00759705 11.0725 0
0.00265171 11.0911 0 -0.00295816 11.1117 0 -0.00929172 11.134 0 -0.0160546
11.1585 0 -0.0229056 11.1851 0 -0.0293772 11.2135 0 -0.0349498 11.2421
0 -0.0391305 11.2669 0 -0.0414655 11.2769 0 -0.0414649 11.2402 0
-0.0383626 11.0646 0 -0.0310501 10.5751 0 -0.018993 9.64741 0 -0.0088758
8.02459 0 0.00404438 11.0012 0 0.00979022 11.0066 0 0.0124739 11.0152
0 0.0133654 11.0253 0 0.0121565 11.0372 0 0.00903965 11.0509 0
0.00442782 11.0664 0 -0.00137351 11.0843 0 -0.00786614 11.1052 0 -0.0147892
11.1288 0 -0.022231 11.1548 0 -0.0298224 11.1838 0 -0.037081 11.2159
0 -0.0434696 11.2506 0 -0.0484773 11.2866 0 -0.0516537 11.3198 0
-0.0526102 11.3397 0 -0.0509095 11.3154 0 -0.0457927 11.1587 0 -0.0362452
10.6946 0 -0.0217575 9.78246 0 -0.00995189 8.15655 0 0.00347529 11.001
0 0.00862449 11.0056 0 0.0109354 11.0133 0 0.0115102 11.0224 0
0.0100311 11.0333 0 0.00657262 11.0459 0 0.00145358 11.0605 0 -0.00508422
11.0776 0 -0.0127447 11.0977 0 -0.0208931 11.1216 0 -0.0291711 11.149
0 -0.0376727 11.1798 0 -0.0458904 11.2144 0 -0.0532567 11.253 0
-0.0592351 11.2952 0 -0.06335 11.3395 0 -0.0652136 11.3822 0 -0.064509
11.4128 0 -0.0608563 11.4018 0 -0.0535403 11.2645 0 -0.0416444 10.8258
0 -0.0245961 9.92824 0 -0.0110282 8.29675 0 0.00303426 11.0008 0
0.00767079 11.0048 0 0.00959284 11.0117 0 0.00981778 11.0199 0 0.008081
11.0298 0 0.00430372 11.0413 0 -0.00129311 11.0548 0 -0.00853574 11.0709
0 -0.0172062 11.0901 0 -0.0269192 11.1132 0 -0.0368435 11.141 0
-0.0464672 11.1733 0 -0.0558594 11.2098 0 -0.0644114 11.2511 0 -0.0715436
11.2973 0 -0.0767505 11.348 0 -0.0796161 11.4017 0 -0.0798286 11.4545
0 -0.0771431 11.4963 0 -0.0712733 11.4989 0 -0.0615665 11.3811 0
-0.0471905 10.9676 0 -0.027472 10.0836 0 -0.0120863 8.44433 0 0.0026863
11.0007 0 0.00688765 11.0043 0 0.00847822 11.0105 0 0.00834888 11.0177
0 0.00631134 11.0265 0 0.00224539 11.037 0 -0.00378802 11.0494 0
-0.0116877 11.0643 0 -0.0213178 11.0824 0 -0.0323913 11.1045 0 -0.0443796
11.1314 0 -0.0561607 11.164 0 -0.0670041 11.2023 0 -0.0770103 11.2458
0 -0.0855417 11.2949 0 -0.0920449 11.3498 0 -0.0960737 11.4098 0
-0.0972906 11.4735 0 -0.0954675 11.5368 0 -0.0904685 11.5901 0 -0.0821158
11.6064 0 -0.0698074 11.5078 0 -0.0528307 11.1188 0 -0.0303553 10.2472
0 -0.0131129 8.59769 0 0.00240746 11.0006 0 0.00624162 11.0038 0
0.0075583 11.0094 0 0.00714014 11.016 0 0.00479215 11.0237 0 0.000406448
11.0331 0 -0.00601355 11.0443 0 -0.0145083 11.0579 0 -0.0250302 11.0746
0 -0.0373951 11.0954 0 -0.051189 11.1212 0 -0.0656531 11.1529 0
-0.0792668 11.1916 0 -0.0910805 11.2371 0 -0.101337 11.2886 0 -0.109419
11.3467 0 -0.114833 11.4111 0 -0.117218 11.4812 0 -0.116331 11.5552
0 -0.112072 11.6294 0 -0.104425 11.6941 0 -0.093304 11.7237 0
-0.0781821 11.6435 0 -0.0584956 11.2782 0 -0.0332111 10.4178 0 -0.0141075
8.75592 0 0.00218096 11.0006 0 0.00570455 11.0035 0 0.00679318 11.0086
0 0.0061506 11.0145 0 0.00355961 11.0214 0 -0.0011386 11.0295 0
-0.00795662 11.0394 0 -0.0169734 11.0517 0 -0.0283021 11.0669 0 -0.0418686
11.0862 0 -0.0573809 11.1105 0 -0.0742076 11.141 0 -0.0912613 11.1786
0 -0.106556 11.2246 0 -0.118975 11.2785 0 -0.129019 11.3393 0
-0.136135 11.4071 0 -0.139922 11.4818 0 -0.140129 11.5623 0 -0.136664
11.647 0 -0.129562 11.7319 0 -0.118906 11.8078 0 -0.104731 11.8501
0 -0.0866049 11.7873 0 -0.0641339 11.4445 0 -0.0360138 10.5939 0
-0.0150561 8.91752 0 0.00199484 11.0005 0 0.00525509 11.0032 0 0.00615297
11.008 0 0.00533682 11.0133 0 0.00256767 11.0195 0 -0.00235913 11.0265
0 -0.00953798 11.035 0 -0.0190648 11.0457 0 -0.031101 11.0594 0
-0.0457586 11.0769 0 -0.0628765 11.0994 0 -0.0819609 11.1282 0 -0.10206
11.1645 0 -0.121695 11.2093 0 -0.138385 11.2639 0 -0.150919 11.3274
0 -0.160175 11.3984 0 -0.165706 11.4768 0 -0.167246 11.5622 0
-0.164723 11.6535 0 -0.158189 11.7488 0 -0.147796 11.8442 0 -0.133765
11.9306 0 -0.116278 11.9848 0 -0.0949956 11.9381 0 -0.0696865 11.6163
0 -0.0387357 10.7742 0 -0.0159688 9.08147 0 0.00184033 11.0005 0
0.00487655 11.0029 0 0.00561402 11.0074 0 0.00466494 11.0123 0 0.00176859
11.0178 0 -0.00331034 11.024 0 -0.0107365 11.0312 0 -0.0206977 11.0402
0 -0.0334022 11.052 0 -0.0490223 11.0677 0 -0.0676078 11.0882 0
-0.0888143 11.1149 0 -0.111838 11.1493 0 -0.13533 11.1926 0 -0.157394
11.2459 0 -0.175048 11.3104 0 -0.187062 11.3846 0 -0.194825 11.4667
0 -0.19806 11.5562 0 -0.19671 11.6526 0 -0.190862 11.7546 0
-0.18071 11.8603 0 -0.166579 11.9655 0 -0.148848 12.0618 0 -0.127834
12.1268 0 -0.10327 12.0948 0 -0.0751034 11.7924 0 -0.0413608 10.9573
0 -0.0167527 9.24669 0 0.00171094 11.0004 0 0.0045558 11.0027 0
0.00515752 11.0069 0 0.00410796 11.0115 0 0.00112399 11.0164 0 -0.00404789
11.0218 0 -0.0116224 11.0279 0 -0.0218657 11.0354 0 -0.0351136 11.0451
0 -0.0516261 11.0585 0 -0.0715184 11.0768 0 -0.0946807 11.1012 0
-0.120471 11.1332 0 -0.147688 11.1744 0 -0.174544 11.2262 0 -0.198723
11.2893 0 -0.216736 11.3649 0 -0.227437 11.4508 0 -0.232899 11.5445
0 -0.23309 11.6455 0 -0.228132 11.7529 0 -0.218298 11.8654 0
-0.203995 11.9808 0 -0.185725 12.0953 0 -0.164012 12.2005 0 -0.139289
12.2751 0 -0.111348 12.2562 0 -0.0803473 11.9713 0 -0.0438238 11.142
0 -0.0179768 9.4107 0 0.00160174 11.0004 0 0.00428249 11.0026 0
0.00476958 11.0066 0 0.00364427 11.0107 0 0.000603094 11.0152 0 -0.00461674
11.0199 0 -0.012264 11.0251 0 -0.0226605 11.0312 0 -0.0362487 11.039
0 -0.0534673 11.0499 0 -0.0745634 11.0655 0 -0.0994863 11.0872 0
-0.127849 11.1165 0 -0.158614 11.1551 0 -0.190123 11.2045 0 -0.220137
11.2661 0 -0.245927 11.3403 0 -0.26351 11.4281 0 -0.271988 11.5264
0 -0.274273 11.6322 0 -0.270551 11.7448 0 -0.2612 11.8629 0
-0.24675 11.9854 0 -0.227813 12.1099 0 -0.20505 12.2327 0 -0.179105
12.3456 0 -0.150534 12.4286 0 -0.119176 12.4211 0 -0.0853597 12.1521
0 -0.0467317 11.3265 0 -0.0190931 9.60265 0 0.00150889 11.0004 0
0.00404848 11.0024 0 0.00443855 11.0062 0 0.00325645 11.0101 0 0.000181311
11.0142 0 -0.00505288 11.0183 0 -0.0127164 11.0227 0 -0.0231688 11.0276
0 -0.0369291 11.0337 0 -0.054584 11.0422 0 -0.0766231 11.0547 0
-0.103171 11.0731 0 -0.133876 11.0994 0 -0.167969 11.1348 0 -0.203942
11.1813 0 -0.239657 11.2404 0 -0.272416 11.3131 0 -0.299104 11.3997
0 -0.315323 11.5004 0 -0.320545 11.6118 0 -0.318617 11.7298 0
-0.310072 11.8536 0 -0.295587 11.9822 0 -0.275938 12.1139 0 -0.251917
12.2466 0 -0.224344 12.3766 0 -0.193974 12.4963 0 -0.161477 12.5862
0 -0.126683 12.5885 0 -0.090495 12.3331 0 -0.049222 11.5312 0
-0.0193492 9.79935 0 0.00142936 11.0003 0 0.00384733 11.0023 0 0.00415296
11.0059 0 0.00293138 11.0096 0 -0.000161029 11.0133 0 -0.00538499 11.0169
0 -0.0130236 11.0205 0 -0.0234599 11.0244 0 -0.0372658 11.0291 0
-0.055137 11.0355 0 -0.0777647 11.045 0 -0.10559 11.0596 0 -0.138473
11.082 0 -0.175628 11.1139 0 -0.215823 11.1569 0 -0.257047 11.2128
0 -0.29666 11.283 0 -0.331518 11.368 0 -0.358216 11.4678 0
-0.371969 11.5823 0 -0.372741 11.7069 0 -0.365553 11.8371 0 -0.351306
11.9718 0 -0.330977 12.11 0 -0.305564 12.2501 0 -0.27605 12.39
0 -0.243397 12.5262 0 -0.208482 12.6512 0 -0.172014 12.7468 0
-0.134038 12.7568 0 -0.0953247 12.5338 0 -0.0507856 11.7543 0 -0.0196756
9.99065 0 0.00136071 11.0003 0 0.00367381 11.0022 0 0.00390702 11.0057
0 0.00265835 11.0091 0 -0.000439562 11.0126 0 -0.00563588 11.0157 0
-0.0132203 11.0187 0 -0.023589 11.0216 0 -0.0373476 11.025 0 -0.0552697
11.0295 0 -0.0781983 11.0364 0 -0.106841 11.0475 0 -0.141454 11.0652
0 -0.181487 11.0925 0 -0.22561 11.1315 0 -0.272089 11.1835 0
-0.318375 11.2503 0 -0.361322 11.3328 0 -0.397434 11.4314 0 -0.423063
11.5453 0 -0.433079 11.674 0 -0.428176 11.8118 0 -0.414678 11.9538
0 -0.393861 12.0988 0 -0.36699 12.2458 0 -0.3353 12.3932 0
-0.299952 12.5392 0 -0.262033 12.6802 0 -0.222482 12.8094 0 -0.182188
12.9089 0 -0.14145 12.9444 0 -0.0995768 12.7531 0 -0.0525289 11.9722
0 -0.0200339 10.1749 0 0.00130158 11.0003 0 0.00352337 11.0021 0
0.00369506 11.0055 0 0.00242693 11.0087 0 -0.000666781 11.0119 0 -0.00582358
11.0147 0 -0.0133341 11.0171 0 -0.0235993 11.0192 0 -0.0372446 11.0214
0 -0.0550965 11.0243 0 -0.0781092 11.0288 0 -0.107194 11.0367 0
-0.142949 11.05 0 -0.185306 11.0718 0 -0.233165 11.1053 0 -0.284584
11.1529 0 -0.337289 11.2154 0 -0.388172 11.2945 0 -0.433677 11.3907
0 -0.469983 11.5038 0 -0.493254 11.6323 0 -0.49818 11.7753 0
-0.486344 11.9262 0 -0.465471 12.0793 0 -0.437229 12.2338 0 -0.403186
12.3885 0 -0.364798 12.5421 0 -0.323366 12.6929 0 -0.280065 12.8376
0 -0.235924 12.9693 0 -0.19268 13.0902 0 -0.148451 13.1505 0
-0.103658 12.9682 0 -0.0542229 12.1828 0 -0.0203192 10.3507 0 0.00339185
11.002 0 0.00123011 11.0003 0 0.00351045 11.0053 0 0.00223034 11.0084
0 -0.000852634 11.0113 0 -0.00596233 11.0138 0 -0.0133861 11.0157 0
-0.0235245 11.0171 0 -0.0370116 11.0182 0 -0.0547071 11.0196 0 -0.0776446
11.0221 0 -0.106888 11.0271 0 -0.143301 11.0364 0 -0.187236 11.0529
0 -0.238167 11.0799 0 -0.294351 11.1212 0 -0.353151 11.1788 0
-0.411736 11.2534 0 -0.466535 11.3461 0 -0.513573 11.4571 0 -0.548761
11.5854 0 -0.568272 11.729 0 -0.566693 11.8862 0 -0.54663 12.0495
0 -0.517348 12.213 0 -0.480904 12.3759 0 -0.439154 12.5371 0
-0.393739 12.6957 0 -0.346056 12.8501 0 -0.29735 12.9969 0 -0.24995
13.1487 0 -0.202948 13.2901 0 -0.154823 13.3533 0 -0.107382 13.1768
0 -0.0556608 12.3848 0 -0.0205216 10.5179 0 0.003347 11.0051 0
0.00323748 11.002 0 0.00114363 11.0002 0 0.00206168 11.0081 0 -0.00100495
11.0108 0 -0.006063 11.013 0 -0.0133932 11.0144 0 -0.0233905 11.0152
0 -0.0366904 11.0155 0 -0.0541713 11.0156 0 -0.0769199 11.0163 0
-0.106113 11.0186 0 -0.142815 11.0244 0 -0.187713 11.036 0 -0.240788
11.0567 0 -0.300962 11.0903 0 -0.365728 11.1408 0 -0.431704 11.21
0 -0.495602 11.2982 0 -0.553348 11.4059 0 -0.600613 11.5326 0
-0.63323 11.6766 0 -0.647475 11.8353 0 -0.637918 12.0062 0 -0.608371
12.1813 0 -0.569728 12.3541 0 -0.524411 12.5241 0 -0.47452 12.6906
0 -0.421829 12.8529 0 -0.367817 13.0093 0 -0.31548 13.1757 0
-0.263977 13.3466 0 -0.212216 13.4874 0 -0.160553 13.5509 0 -0.110596
13.3777 0 -0.0568296 12.5776 0 -0.0206336 10.676 0 0.00191159 11.0078
0 0.00316786 11.0049 0 0.0030427 11.0018 0 0.00106072 11.0002 3.59587e-19
-0.00113148 11.0104 0 -0.00613395 11.0123 0 -0.0133677 11.0134 0 -0.0232174
11.0136 0 -0.0363133 11.0131 0 -0.0535421 11.012 0 -0.0760241 11.0111
0 -0.105015 11.0111 0 -0.141731 11.0137 0 -0.187117 11.021 0
-0.241563 11.0359 0 -0.304593 11.0619 0 -0.374453 11.1035 0 -0.447776
11.1648 0 -0.520497 11.2474 0 -0.588827 11.3505 0 -0.648247 11.4742
0 -0.694258 11.6173 0 -0.72271 11.7774 0 -0.730094 11.9508 0
-0.711087 12.1349 0 -0.670874 12.3207 0 -0.62202 12.5016 0 -0.567271
12.6774 0 -0.508915 12.848 0 -0.448815 13.0124 0 -0.390731 13.1883
0 -0.33385 13.3733 0 -0.276625 13.5422 0 -0.220555 13.6801 0
-0.165547 13.7418 0 -0.113304 13.5703 0 -0.0577082 12.7606 0 -0.0206839
10.8249 0 -0.00124686 11.01 0 0.00176587 11.0075 0 0.00295626 11.0047
1.57455e-18 0.00285405 11.0017 -1.1385e-18 0.000980934 11.0002 -7.29777e-19 -0.00618323 11.0117 0
-0.0133187 11.0124 0 -0.0230196 11.0122 0 -0.0359044 11.011 0 -0.0528597
11.0089 0 -0.075025 11.0065 0 -0.103709 11.0046 0 -0.140238 11.0043
0 -0.185754 11.0077 0 -0.240969 11.0172 0 -0.305897 11.0363 0
-0.379484 11.0691 0 -0.459204 11.1202 0 -0.540839 11.1941 0 -0.619544
11.2915 0 -0.691097 11.4109 0 -0.750717 11.5516 0 -0.793815 11.7116
0 -0.816371 11.8876 0 -0.815256 12.0753 0 -0.785384 12.2716 0
-0.733429 12.4668 0 -0.673647 12.6545 0 -0.609039 12.8348 0 -0.542012
13.0077 0 -0.477317 13.1918 0 -0.41413 13.3861 0 -0.350448 13.5686
0 -0.28797 13.7335 0 -0.227873 13.8668 0 -0.169803 13.9251 0
-0.115578 13.7538 0 -0.0583744 12.9338 0 -0.020692 10.9647 0 -0.00623233
11.0111 0 -0.00131958 11.0095 -3.18599e-18 0.0016061 11.0071 -1.65771e-18 0.0027507 11.0044
7.99376e-19 0.0026688 11.0016 -7.69844e-19 0.000904339 11.0002 0 -0.0132542 11.0116 0
-0.0228071 11.0109 0 -0.0354813 11.0091 0 -0.0521543 11.0062 0 -0.0739734
11.0025 0 -0.102281 10.9988 0 -0.138482 10.996 0 -0.183864 10.9959
0 -0.239387 11.0007 0 -0.30546 11.0134 0 -0.381605 11.038 0
-0.466104 11.079 0 -0.555654 11.1413 0 -0.645022 11.2293 0 -0.728602
11.343 0 -0.801946 11.4799 0 -0.860071 11.6383 0 -0.898416 11.8153
0 -0.91327 12.0069 0 -0.902036 12.2081 0 -0.859974 12.4154 0
-0.795348 12.6187 0 -0.724069 12.8117 0 -0.64931 12.9949 0 -0.577056
13.1877 0 -0.50657 13.3903 0 -0.43533 13.5819 0 -0.365319 13.7599
0 -0.297948 13.919 0 -0.234157 14.0463 0 -0.173394 14.1003 0
-0.117414 13.9288 0 -0.0589393 13.0971 0 -0.0206287 11.0955 0 -0.0132048
11.0109 0 -0.00618554 11.0105 6.70609e-18 -0.00135545 11.0089 0 0.0014531 11.0066
1.68178e-18 0.0025525 11.0042 5.78772e-22 0.00248757 11.0015 0 0.00083092 11.0002 0
-0.0225875 11.0098 0 -0.0350547 11.0075 0 -0.0514469 11.0038 0 -0.072907
10.999 0 -0.100797 10.9937 0 -0.136574 10.9887 0 -0.181632 10.9854
0 -0.237121 10.986 0 -0.303755 10.993 0 -0.38153 11.0101 0
-0.469402 11.0416 0 -0.564981 11.0922 0 -0.664006 11.1674 0 -0.760172
11.2712 0 -0.847277 11.4027 0 -0.920717 11.558 0 -0.975428 11.7345
0 -1.00706 11.9285 0 -1.01239 12.135 0 -0.98949 12.3486 0
-0.93404 12.5655 0 -0.855968 12.7753 0 -0.772786 12.972 0 -0.692051
13.1755 0 -0.613159 13.3871 0 -0.533145 13.5869 0 -0.454332 13.7738
0 -0.378423 13.9455 0 -0.306554 14.0977 0 -0.23948 14.2182 0
-0.176284 14.2669 0 -0.118768 14.0937 0 -0.0593682 13.2504 0 -0.0204908
11.2176 0 -0.0224038 11.0089 0 -0.0129879 11.01 5.35382e-22 -0.00601897 11.0097
0 -0.0013893 11.0083 -1.76937e-18 0.00130916 11.0062 4.12254e-22 0.00236173 11.0039 0
0.00231039 11.0014 0 0.000760664 11.0001 0 -0.034632 11.006 0 -0.0507499
11.0017 0 -0.0718523 10.9959 0 -0.0993045 10.9892 0 -0.134597 10.9823
0 -0.179201 10.9763 0 -0.234405 10.973 0 -0.301161 10.9749 0
-0.379839 10.9851 0 -0.469957 11.0078 0 -0.5699 11.0475 0 -0.676418
11.1096 0 -0.784215 11.1994 0 -0.885994 11.3206 0 -0.974975 11.4711
0 -1.04655 11.6455 0 -1.09576 11.8403 0 -1.11867 12.0508 0
-1.11269 12.2713 0 -1.07667 12.496 0 -1.00681 12.7209 0 -0.914686
12.9355 0 -0.824614 13.1531 0 -0.736209 13.3759 0 -0.646045 13.5848
0 -0.556992 13.7797 0 -0.471109 13.9601 0 -0.389775 14.1244 0
-0.313861 14.2689 0 -0.243851 14.3819 0 -0.17842 14.4246 0 -0.119692
14.2484 0 -0.0596359 13.3941 0 -0.0202954 11.3312 0 -0.0342729 11.0047
0 -0.0219567 11.0077 -3.70766e-18 -0.0125305 11.009 0 -0.00585691 11.0089 0
-0.00140982 11.0078 5.38238e-18 0.00117417 11.0059 0 0.00217823 11.0037 0 0.00213742
11.0013 1.60423e-18 0.000693577 11.0001 0 -0.0500696 10.9998 0 -0.0708233 10.9932
0 -0.0978366 10.9853 0 -0.132613 10.9766 0 -0.176676 10.9682 0
-0.231418 10.9615 0 -0.297971 10.9588 0 -0.376999 10.9629 0 -0.468471
10.9775 0 -0.571425 11.0071 0 -0.683491 11.0568 0 -0.800478 11.132
0 -0.916102 11.238 0 -1.02198 11.3782 0 -1.11088 11.5487 0
-1.1784 11.7426 0 -1.21992 11.9555 0 -1.23208 12.1818 0 -1.21307
12.4152 0 -1.16266 12.6495 0 -1.07753 12.8804 0 -0.977347 13.117
0 -0.878295 13.3546 0 -0.776522 13.5749 0 -0.675591 13.7789 0
-0.578082 13.9671 0 -0.485687 14.1398 0 -0.399454 14.296 0 -0.319925
14.4321 0 -0.247287 14.5372 0 -0.179939 14.5736 0 -0.120275 14.3932
0 -0.0597519 13.5282 0 -0.0200629 11.4367 0 -0.0494902 10.9982 0
-0.0335205 11.0033 0 -0.0210988 11.0065 -4.05245e-18 -0.0120889 11.008 -3.9114e-18 -0.00567583
11.0082 -7.54509e-18 -0.00141689 11.0072 0 0.00104821 11.0055 -3.50486e-18 0.00200224 11.0035
-3.37606e-18 0.00196863 11.0012 1.62457e-18 0.000629527 11.0001 0 -0.0698256 10.9908 0
-0.09641 10.9818 0 -0.130665 10.9716 0 -0.174138 10.961 0 -0.228299
10.9514 0 -0.294413 10.9445 0 -0.373374 10.9431 0 -0.465511 10.9504
0 -0.570397 10.9707 0 -0.686413 11.0087 0 -0.81035 11.07 0