#           x             T
    -0.118947       349.868
    -0.118121       349.863
    -0.117174       349.857
    -0.116087       349.852
     -0.11484       349.848
    -0.113408       349.845
    -0.111764       349.843
    -0.109877       349.842
    -0.107712       349.841
    -0.105227        349.84
    -0.102374       349.839
   -0.0990995       349.839
   -0.0953416        349.84
   -0.0914285       349.845
   -0.0876191       349.854
   -0.0838095       349.874
        -0.08       349.916
   -0.0761904       350.001
   -0.0723809        350.17
   -0.0685715       350.504
   -0.0649271       351.122
    -0.061624       352.167
    -0.058655       353.794
   -0.0559862       356.125
   -0.0535874       359.186
   -0.0514313       362.861
   -0.0494932       366.935
   -0.0477512       371.158
   -0.0461853       375.277
   -0.0447779       379.081
   -0.0435128       382.436
   -0.0423757       385.284
   -0.0413536       387.637
   -0.0404349       389.667
     -0.03925       391.782
     -0.03775       393.842
     -0.03625       395.469
     -0.03475       396.626
     -0.03325       397.366
     -0.03175        397.72
     -0.03025       397.766
     -0.02875       397.632
     -0.02725       397.401
     -0.02575       397.133
   -0.0243994       396.882
   -0.0231362       396.679
    -0.021743        396.43
   -0.0202065       396.058
   -0.0189203       395.746
   -0.0180315       395.532
   -0.0166427       395.207
   -0.0145812       394.745
    -0.012414       394.281
   -0.0110231        394.03
   -0.0100402        393.87
  -0.00847254       393.646
  -0.00677747       393.456
  -0.00524316       393.324
  -0.00385435       393.238
  -0.00288618       393.194
  -0.00228892       393.173
  -0.00133333       393.151
            0       393.136
   0.00133333       393.136
     0.002289       393.146
   0.00288966       393.156
   0.00386381       393.176
   0.00525697       393.209
   0.00679351        393.25
    0.0084882       393.297
    0.0100473       393.335
    0.0110276       393.354
    0.0124188        393.37
    0.0145859       393.373
    0.0166548       393.333
    0.0180384       393.288
    0.0189282       393.251
    0.0202225        393.19
    0.0217568       393.104
    0.0231456       393.023
    0.0244027       392.953
      0.02575       392.894
      0.02725       392.862
      0.02875        392.88
      0.03025       392.977
      0.03175       393.189
      0.03325       393.548
      0.03475       394.085
      0.03625       394.811
      0.03775       395.693
      0.03925       396.545
    0.0404349       397.049
    0.0413536       397.154
    0.0423757       396.819
    0.0435128       395.791
    0.0447779       393.765
    0.0461853       390.506
    0.0477511       385.832
    0.0494932       379.887
    0.0514312       373.281
    0.0535874       366.829
    0.0559862       361.218
    0.0586549       356.849
     0.061624       353.815
    0.0649271       351.927
    0.0685714        350.86
    0.0723809       350.314
    0.0761904       350.053
         0.08       349.929
    0.0838095        349.87
     0.087619       349.843
    0.0914285       349.832
    0.0953419       349.827
    0.0991002       349.826
     0.102374       349.826
     0.105227       349.827
     0.107713       349.828
     0.109878        349.83
     0.111765       349.831
     0.113408       349.834
      0.11484       349.836
     0.116088        349.84
     0.117175       349.846
     0.118122       349.852
     0.118947       349.857
     0.119665       349.862
