#           x             T
    -0.118946       349.869
    -0.118121       349.858
    -0.117174       349.851
    -0.116087       349.846
    -0.114839       349.843
    -0.113407       349.841
    -0.111763        349.84
    -0.109877       349.839
    -0.107712       349.838
    -0.105226       349.838
    -0.102373        349.84
   -0.0990994       349.843
   -0.0953416        349.85
   -0.0914285       349.865
    -0.087619       349.892
   -0.0838095       349.943
        -0.08       350.036
   -0.0761904       350.207
   -0.0723809        350.52
   -0.0685714       351.082
   -0.0649271        352.02
    -0.061624       353.432
   -0.0586549       355.378
   -0.0559862       357.853
   -0.0535874       360.778
   -0.0514312       364.026
   -0.0494932       367.457
   -0.0477512       370.939
   -0.0461853       374.344
   -0.0447779       377.561
   -0.0435128        380.49
   -0.0423757       383.051
   -0.0413536       385.197
   -0.0404349       387.045
     -0.03925       388.944
     -0.03775       390.783
     -0.03625       392.215
     -0.03475       393.188
     -0.03325       393.788
     -0.03175       394.109
     -0.03025       394.231
     -0.02875       394.223
     -0.02725       394.132
     -0.02575       393.998
   -0.0243993       393.851
   -0.0231362       393.705
    -0.021743       393.551
   -0.0202065        393.41
   -0.0185118       393.275
   -0.0171075       393.176
   -0.0161272       393.115
   -0.0145812       393.033
    -0.012414       392.947
   -0.0103452       392.903
  -0.00847254       392.893
  -0.00711441       392.904
  -0.00630907       392.918
  -0.00524316       392.948
  -0.00385435       393.003
  -0.00259726       393.073
  -0.00133333       393.157
            0       393.262
   0.00133333       393.382
   0.00260066       393.505
   0.00386381       393.638
   0.00525697       393.796
   0.00631696       393.923
   0.00712283       394.023
    0.0084882       394.194
    0.0103573       394.428
    0.0124188       394.651
    0.0145859       394.784
    0.0161321       394.827
     0.017115       394.832
    0.0185274       394.808
    0.0202225       394.725
    0.0217568       394.594
    0.0231456       394.447
    0.0244027        394.31
      0.02575       394.177
      0.02725       394.064
      0.02875       393.993
      0.03025       393.979
      0.03175        394.03
      0.03325       394.148
      0.03475       394.322
      0.03625       394.522
      0.03775       394.697
      0.03925       394.747
    0.0404349       394.548
    0.0413536       394.094
    0.0423757       393.224
    0.0435128       391.745
    0.0447779       389.479
    0.0461853        386.31
    0.0477511       382.238
    0.0494932       377.418
    0.0514312       372.171
    0.0535874        366.92
    0.0559862       362.096
    0.0586549       358.038
     0.061624       354.931
    0.0649271       352.779
    0.0685714       351.426
    0.0723809       350.655
    0.0761904       350.247
         0.08       350.035
    0.0838095       349.925
     0.087619       349.869
    0.0914285       349.841
    0.0953419       349.828
    0.0991002       349.822
     0.102374        349.82
     0.105227        349.82
     0.107713       349.821
     0.109878       349.822
     0.111765       349.823
     0.113408       349.825
      0.11484       349.827
     0.116088        349.83
     0.117175       349.835
     0.118122       349.843
     0.118947       349.855
     0.119665       349.866
