#           x             T
    -0.118947       349.829
    -0.118121       349.825
    -0.117174        349.82
    -0.116087       349.815
     -0.11484       349.811
    -0.113408       349.809
    -0.111764       349.807
    -0.109877       349.805
    -0.107712       349.804
    -0.105227       349.803
    -0.102374       349.802
   -0.0990995       349.801
   -0.0953416       349.802
   -0.0914285       349.806
   -0.0876191       349.816
   -0.0838095       349.837
        -0.08       349.884
   -0.0761904       349.979
   -0.0723809       350.176
   -0.0685715       350.575
   -0.0649271       351.332
    -0.061624       352.642
    -0.058655       354.721
   -0.0559862       357.734
   -0.0535874       361.701
   -0.0514313       366.466
   -0.0494932       371.681
   -0.0477512       376.922
   -0.0461853       381.775
   -0.0447779       385.938
   -0.0435128       389.277
   -0.0423757       391.818
   -0.0413536       393.685
   -0.0404349       395.098
     -0.03925       396.337
     -0.03775       397.172
     -0.03625       397.331
     -0.03475       396.908
     -0.03325       396.126
     -0.03175       395.295
     -0.03025       394.607
     -0.02875       394.097
     -0.02725       393.741
     -0.02575       393.499
   -0.0243994       393.338
   -0.0231362       393.222
    -0.021743       393.112
   -0.0202065       392.993
   -0.0189203       392.885
   -0.0180315       392.805
   -0.0166427       392.674
   -0.0145812       392.469
    -0.012414       392.253
   -0.0110231       392.123
   -0.0100402       392.035
  -0.00847254       391.902
  -0.00677747       391.778
  -0.00524316       391.685
  -0.00385435       391.616
  -0.00288618       391.576
  -0.00228892       391.554
  -0.00133333       391.525
            0       391.494
   0.00133333       391.473
     0.002289       391.464
   0.00288966        391.46
   0.00386381       391.457
   0.00525697       391.457
   0.00679351       391.461
    0.0084882       391.465
    0.0100473       391.468
    0.0110276       391.468
    0.0124188       391.466
    0.0145859       391.455
    0.0166548       391.438
    0.0180384       391.426
    0.0189282        391.42
    0.0202225       391.415
    0.0217568       391.422
    0.0231456       391.457
    0.0244027       391.523
      0.02575       391.641
      0.02725       391.841
      0.02875       392.146
      0.03025       392.582
      0.03175       393.171
      0.03325       393.926
      0.03475       394.835
      0.03625       395.833
      0.03775       396.744
      0.03925       397.276
    0.0404349       397.249
    0.0413536       396.807
    0.0423757       395.863
    0.0435128       394.236
    0.0447779       391.706
    0.0461853        388.06
    0.0477511       383.241
    0.0494932       377.503
    0.0514312       371.379
    0.0535874       365.497
    0.0559862        360.39
    0.0586549       356.392
     0.061624       353.589
    0.0649271        351.82
    0.0685714       350.805
    0.0723809       350.279
    0.0761904       350.024
         0.08       349.901
    0.0838095       349.843
     0.087619       349.815
    0.0914285       349.803
    0.0953419       349.798
    0.0991002       349.797
     0.102374       349.797
     0.105227       349.798
     0.107713       349.799
     0.109878         349.8
     0.111765       349.802
     0.113408       349.804
      0.11484       349.806
     0.116088        349.81
     0.117175       349.815
     0.118122        349.82
     0.118947       349.825
     0.119665       349.829
