#           x             T
    -0.118946        348.51
    -0.118121       348.538
    -0.117174       348.564
    -0.116087       348.582
    -0.114839        348.59
    -0.113407       348.591
    -0.111763       348.589
    -0.109877       348.584
    -0.107712       348.577
    -0.105226       348.567
    -0.102373       348.555
   -0.0990994       348.539
   -0.0953416       348.521
   -0.0914285       348.505
    -0.087619       348.495
   -0.0838095       348.502
        -0.08       348.542
   -0.0761904       348.643
   -0.0723809       348.859
   -0.0685714       349.281
   -0.0649271        350.02
    -0.061624       351.169
   -0.0586549       352.795
   -0.0559862       354.913
   -0.0535874        357.46
   -0.0514312       360.316
   -0.0494932       363.327
   -0.0477512       366.339
   -0.0461853       369.193
   -0.0447779       371.725
   -0.0435128         373.8
   -0.0423757       375.356
   -0.0413536       376.413
   -0.0404349       377.072
     -0.03925       377.375
     -0.03775       377.065
     -0.03625       376.075
     -0.03475       374.533
     -0.03325       372.597
     -0.03175       370.404
     -0.03025        368.06
     -0.02875        365.65
     -0.02725       363.234
     -0.02575       360.913
   -0.0243993        358.82
   -0.0231362       356.932
    -0.021743       355.028
   -0.0202065       353.056
   -0.0185118       351.028
   -0.0171075        349.46
   -0.0161272       348.431
   -0.0145812       346.928
    -0.012414        344.99
   -0.0103452       343.378
  -0.00847254       342.125
  -0.00711441       341.333
  -0.00630907       340.909
  -0.00524316        340.41
  -0.00385435       339.875
  -0.00259726       339.519
  -0.00133333       339.301
            0       339.212
   0.00133333        339.28
   0.00260066       339.496
   0.00386381       339.852
   0.00525697        340.39
   0.00631696       340.886
   0.00712283       341.311
    0.0084882       342.107
    0.0103573        343.36
    0.0124188       344.969
    0.0145859       346.909
    0.0161321       348.411
     0.017115       349.443
    0.0185274       351.019
    0.0202225       353.046
    0.0217568       355.013
    0.0231456       356.909
    0.0244027       358.786
      0.02575       360.873
      0.02725       363.191
      0.02875       365.603
      0.03025        368.01
      0.03175       370.348
      0.03325       372.535
      0.03475       374.464
      0.03625       375.997
      0.03775       376.975
      0.03925       377.273
    0.0404349       376.962
    0.0413536       376.297
    0.0423757       375.236
    0.0435128       373.679
    0.0447779       371.606
    0.0461853       369.081
    0.0477511       366.237
    0.0494932       363.239
    0.0514312       360.244
    0.0535874       357.405
    0.0559862       354.874
    0.0586549       352.769
     0.061624       351.153
    0.0649271       350.011
    0.0685714       349.277
    0.0723809       348.858
    0.0761904       348.643
         0.08       348.542
    0.0838095       348.503
     0.087619       348.496
    0.0914285       348.505
    0.0953419       348.522
    0.0991002        348.54
     0.102374       348.555
     0.105227       348.567
     0.107713       348.577
     0.109878       348.584
     0.111765       348.589
     0.113408       348.592
      0.11484        348.59
     0.116088       348.582
     0.117175       348.564
     0.118122       348.538
     0.118947        348.51
     0.119665        348.49
