# vtk DataFile Version 2.0
sampleSurface
ASCII
DATASET POLYDATA
POINTS 15978 float
-4.26165e-19 0.000133477 0 -4.18079e-19 -0.000798814 0 -4.33681e-19 0.001 0 -4.09379e-19 -0.00180187
0 -0.00181681 0.000361473 0 0.00181681 0.000361473 0 -0.00181396 -0.000575145 0
0.00181396 -0.000575145 0 -0.00181945 0.00123202 0 0.00181945 0.00123202 0 -0.00181089
-0.00158285 0 0.00181089 -0.00158285 0 -4.00018e-19 -0.00288105 0 -0.00180759 -0.00266704
0 0.00180759 -0.00266704 0 -0.00351565 8.15481e-05 0 0.00351565 8.15481e-05 0
-0.00351186 -0.000939823 0 0.00351186 -0.000939823 0 -0.00351918 0.00103087 0 0.00351918
0.00103087 0 -0.00352245 0.00191322 0 0.00352245 0.00191322 0 -3.89947e-19 -0.00404214
0 -0.00350777 -0.00203871 0 0.00350777 -0.00203871 0 -0.00180405 -0.00383352 0
0.00180405 -0.00383352 0 -0.00350338 -0.00322101 0 0.00350338 -0.00322101 0 -0.005
8.60602e-05 0 0.005 8.60602e-05 0 -0.005 -0.00103629 0 0.005 -0.00103629
0 -0.005 0.00112923 0 0.005 0.00112923 0 -3.79112e-19 -0.00529135 0
-0.00180023 -0.00508853 0 0.00180023 -0.00508853 0 -0.005 0.00209882 0 0.005
0.00209882 0 -0.005 -0.00224382 0 0.005 -0.00224382 0 -0.00349866 -0.00449304
0 0.00349866 -0.00449304 0 -0.005 0.003 0 0.005 0.003 0
-0.005 -0.003543 0 0.005 -0.003543 0 -0.00637208 2.82617e-05 0 0.00639053
4.25732e-05 0 -0.00637208 0.00114892 0 -0.00637208 -0.00117745 0 0.00639053 -0.00116311
0 0.00639053 0.00116321 0 -3.67455e-19 -0.00663538 0 -0.00179612 -0.00643879 0
0.00179612 -0.00643879 0 -0.00637208 0.00219052 0 0.00639053 0.00220479 0 -0.00349357
-0.00586162 0 0.00349357 -0.00586162 0 -0.00637208 -0.00247467 0 0.00639053 -0.00246031
0 -0.005 -0.00494079 0 0.005 -0.00494079 0 -0.00637208 0.00315864 0
0.00639053 0.00317289 0 -0.00637208 -0.00387036 0 0.00639053 -0.00385597 0 -0.00637208
0.00405846 0 0.00639053 0.00407269 0 -0.00778421 -7.99569e-05 0 0.00781802 -5.3679e-05
0 -0.00778421 0.00112388 0 0.00781802 0.00115011 0 -0.00778421 -0.00137517 0
0.00781802 -0.00134884 0 -3.54912e-19 -0.00808142 0 -0.0017917 -0.00789154 0 0.0017917
-0.00789154 0 -0.00778421 0.0022428 0 -0.0034881 -0.00733407 0 0.0034881 -0.00733407
0 0.00781802 0.00226899 0 -0.005 -0.00644467 0 0.005 -0.00644467 0
-0.00778421 -0.00276868 0 0.00781802 -0.0027423 0 -0.00637208 -0.00537197 0 0.00639053
-0.00535755 0 -0.00778421 0.00328278 0 0.00781802 0.00330893 0 -0.00778421 0.00424939
0 -0.00778421 -0.00426796 0 0.00781802 -0.00424152 0 0.00781802 0.00427551 0
-0.00923755 -0.000243565 0 0.00928347 -0.000207818 0 -0.00923755 0.00104957 0 -0.00778421
0.00514782 0 0.00928347 0.00108525 0 0.00781802 0.0051739 0 -0.00923755 -0.00163485
0 0.00928347 -0.00159903 0 -0.00637208 -0.00698755 0 0.00639053 -0.0069731 0
-0.005 -0.0080627 0 0.005 -0.0080627 0 -0.00923755 0.00225148 0 0.00928347
0.0022871 0 -0.00348222 -0.00891827 0 0.00348222 -0.00891827 0 -0.00178695 -0.00945455
0 0.00178695 -0.00945455 0 -3.41418e-19 -0.00963721 0 -0.00923755 -0.00313172 0
-0.00778421 -0.00588103 0 0.00781802 -0.00585453 0 0.00928347 -0.00309583 0 -0.00923755
0.0033686 0 0.00928347 0.00340416 0 -0.00923755 0.00440692 0 0.00928347 0.00444243
0 -0.00923755 -0.00474221 0 0.00928347 -0.00470623 0 -0.00923755 0.00537198 0
-0.0107333 -0.000467921 0 0.00928347 0.00540745 0 -0.0107333 0.000921062 0 0.0107879
-0.000425364 0 0.00639053 -0.00871127 0 -0.00637208 -0.00872575 0 0.0107879 0.000963535
0 -0.00778421 -0.00761653 0 0.00781802 -0.00758997 0 -0.0107333 -0.00196233 0
0.0107879 -0.00191968 0 -0.0107333 0.00221206 0 -0.005 -0.00980352 0 0.005
-0.00980352 0 0.0107879 0.00225445 0 -0.00923755 0.00626897 0 -0.00347589 -0.0106227
0 0.00347589 -0.0106227 0 0.00928347 0.00630439 0 -0.0107333 0.00341198 0
-0.00178183 -0.0111362 0 0.00178183 -0.0111362 0 -0.00923755 -0.00647493 0 0.00928347
-0.00643887 0 -3.26899e-19 -0.0113111 0 -0.0107333 -0.00357015 0 0.0107879 0.00345431
0 0.0107879 -0.00352741 0 -0.0107333 0.00452726 0 0.0107879 0.00456952 0
-0.0107333 -0.00530001 0 0.0107879 -0.00525717 0 -0.0107333 0.00556386 0 0.0107879
0.00560606 0 -0.000743369 0.0122055 0 0.000743369 0.0122055 0 -0.00778421 -0.00948375
0 0.00781802 -0.00945713 0 -0.0122727 0.000733061 0 -0.0122727 -0.000758799 0
0.0123323 -0.000712262 0 0.0123323 0.0007795 0 0.00639053 -0.0105814 0 -0.00637208
-0.0105959 0 -0.00923755 -0.00833916 0 -0.0122727 0.00211968 0 0.00928347 -0.00830301
0 -0.0122727 -0.00236389 0 0.0123323 0.00216603 0 0.0123323 -0.00231725 0
-0.0107333 0.00652734 0 0.0107879 0.00656947 0 -0.005 -0.0116765 0 0.005
-0.0116765 0 -0.0122727 0.00340848 0 0.0123323 0.00345474 0 -0.000741126 0.0128136
0 0.000741126 0.0128136 0 -0.0107333 -0.00716117 0 0.0107879 -0.00711821 0
-0.00346908 -0.0124565 0 0.00346908 -0.0124565 0 -0.0122727 -0.00409081 0 0.0123323
-0.00404405 0 -0.0107333 0.00742284 0 -0.00177633 -0.0129455 0 0.00177633 -0.0129455
0 -0.0122727 0.00460636 0 -3.11279e-19 -0.013112 0 0.0107879 0.00746492 0
-0.002 0.013 0 0.002 0.013 0 0.0123323 0.00465255 0 -0.0007387
0.0134712 0 0.0007387 0.0134712 0 -0.0122727 0.00571974 0 0.0123323 0.00576585
0 -0.0122727 -0.00594879 0 0.0123323 -0.00590191 0 -0.002 0.0135849 0
0.002 0.0135849 0 -0.0138571 0.000479853 0 -0.00923755 -0.0103449 0 0.00928347
-0.0103086 0 0.00781802 -0.011466 0 -0.00778421 -0.0114927 0 -0.0138571 -0.00112242
0 0.0139177 0.000527252 0 0.0139177 -0.00107491 0 -0.0138571 0.0019691 0
-0.0122727 0.00675458 0 0.0139177 0.00201639 0 0.0123323 0.00680062 0 -0.0107333
-0.00916358 0 0.00639053 -0.0125934 0 0.0107879 -0.0091205 0 -0.00637208 -0.012608
0 -0.0138571 -0.0028463 0 0.0139177 -0.00279868 0 -0.000736077 0.0141824 0
0.000736077 0.0141824 0 -0.00319452 0.0138829 0 0.00320133 0.0138879 0 -0.0138571
0.00335328 0 0.0139177 0.00340049 0 -0.002 0.0142174 0 0.002 0.0142174
0 -0.0122727 0.00771641 0 0.0123323 0.00776239 0 -0.005 -0.0136916 0
0.005 -0.0136916 0 -0.0138571 0.00463982 0 -0.0122727 -0.0079478 0 -0.0138571
-0.00470103 0 0.0123323 -0.00790078 0 0.0139177 -0.00465328 0 0.0139177 0.00468694
0 -0.00319452 0.0144678 0 0.00320133 0.0144728 0 -0.00346175 -0.0144295 0
0.00346175 -0.0144295 0 -0.00073324 0.0149515 0 0.00073324 0.0149515 0 -0.0122727
0.00861039 0 -0.00177041 -0.0148921 0 0.00177041 -0.0148921 0 -0.002 0.0149014
0 0.002 0.0149014 0 -0.0138571 0.0058356 0 -2.94473e-19 -0.0150496 0
0.0123323 0.00865631 0 0.0139177 0.00588264 0 -0.0138571 -0.00669653 0 0.0139177
-0.00664864 0 -0.00319452 0.0151003 0 0.00320133 0.0151053 0 -0.0154877 0.000155282
0 -0.0138571 0.00694702 0 -0.00451419 0.0148583 0 0.0045263 0.0148673 0
0.00928347 -0.0124665 0 -0.00923755 -0.0125028 0 0.0155453 0.000200444 0 -0.0154877
-0.00156548 0 0.0139177 0.00699399 0 -0.0154877 0.00175466 0 -0.0107333 -0.011318
0 0.0107879 -0.0112748 0 0.0155453 -0.00152021 0 0.0155453 0.00179972 0
0.00781802 -0.0136273 0 -0.00778421 -0.0136541 0 -0.002 0.0156411 0 0.002
0.0156411 0 -0.000730172 0.0157833 0 0.000730172 0.0157833 0 -0.0154877 0.0032412
0 -0.0154877 -0.00341685 0 0.0155453 0.00328617 0 -0.0122727 -0.0100985 0
0.0155453 -0.00337146 0 0.0123323 -0.0100514 0 -0.0138571 0.00798004 0 0.0139177
0.00802694 0 0.00639053 -0.0147581 0 -0.00637208 -0.0147727 0 -0.00451419 0.0154432
0 0.0045263 0.0154521 0 -0.00319452 0.0157843 0 0.00320133 0.0157893 0
-0.0154877 0.00462288 0 0.0155453 0.00466776 0 -0.0154877 -0.00540874 0 -0.0138571
-0.00884348 0 0.0155453 -0.00536322 0 0.0139177 -0.00879545 0 -0.0138571 0.00894019
0 -0.002 0.0164411 0 0.002 0.0164411 0 0.0139177 0.00898702 0
-0.0154877 0.00590709 0 -0.005 -0.0158596 0 0.005 -0.0158596 0 0.0155453
0.00595189 0 -0.00451419 0.0160757 0 -0.000726854 0.0166828 0 0.000726854 0.0166828
0 0.0045263 0.0160846 0 -0.00319452 0.016524 0 0.00320133 0.016529 0
-0.00345386 -0.0165523 0 0.00345386 -0.0165523 0 -0.0138571 0.0098326 0 -0.00597213
0.0159359 0 0.00598764 0.0159474 0 -0.0154877 0.00710071 0 0.0139177 0.00987937
0 -0.00176404 -0.0169864 0 0.00176404 -0.0169864 0 0.0155453 0.00714543 0
-2.76391e-19 -0.0171343 0 -0.0171658 -0.000247278 0 0.0172162 -0.000207752 0 -0.0171658
0.00147028 0 -0.0154877 -0.0075518 0 0.0155453 -0.00750615 0 0.0172162 0.00150971
0 -0.0171658 -0.00209519 0 0.0172162 -0.00205556 0 0.0107879 -0.0135925 0
-0.0107333 -0.0136359 0 -0.00451419 0.0167597 0 0.0045263 0.0167686 0 -0.002
0.0173062 0 0.002 0.0173062 0 -0.0171658 0.00306667 0 -0.0122727 -0.0124125
0 0.00928347 -0.0147881 0 0.0123323 -0.0123652 0 -0.00923755 -0.0148246 0
0.0172162 0.00310601 0 -0.0154877 0.00821012 0 -0.00597213 0.0165208 0 0.00598764
0.0165323 0 0.0155453 0.00825477 0 -0.00319452 0.017324 0 0.00320133 0.017329
0 -0.0171658 -0.00408336 0 -0.000723266 0.0176555 0 0.000723266 0.0176555 0
0.0172162 -0.00404362 0 -0.0171658 0.00455044 0 0.00781802 -0.0159527 0 -0.00778421
-0.0159796 0 -0.0138571 -0.0111534 0 0.0139177 -0.0111052 0 0.0172162 0.0045897
0 -0.0154877 0.00924127 0 -0.00451419 0.0174994 0 0.0045263 0.0175084 0
0.0155453 0.00928585 0 -0.0171658 0.00592954 0 -0.00597213 0.0171533 0 0.00598764
0.0171648 0 0.0172162 0.00596872 0 0.00639053 -0.0170872 0 -0.00637208 -0.0171018
0 -0.0171658 -0.00622243 0 0.0172162 -0.00618257 0 -0.002 0.0182418 0
0.002 0.0182418 0 -0.0154877 -0.00985753 0 0.0155453 -0.00981172 0 -0.00319452
0.0181891 0 0.00320133 0.0181941 0 -0.0154877 0.0101997 0 0.0155453 0.0102442
0 -0.0171658 0.00721136 0 0.0172162 0.00725047 0 -0.000719385 0.0187075 0
0.000719385 0.0187075 0 -0.00758282 0.0171264 0 0.00759938 0.0171387 0 -0.00597213
0.0178373 0 0.00598764 0.0178488 0 -0.00451419 0.0182994 0 0.0045263 0.0183083
0 -0.005 -0.0181922 0 0.005 -0.0181922 0 -0.018893 -0.00073496 0
-0.018893 0.0011094 0 0.0189314 -0.000704684 0 0.0189314 0.0011396 0 -0.0154877
0.0110905 0 -0.018893 -0.0027193 0 -0.018893 0.00282365 0 -0.0171658 0.00840275
0 0.0189314 -0.00268894 0 0.0155453 0.0111349 0 0.0189314 0.00285377 0
-0.00344538 -0.0188361 0 0.00344538 -0.0188361 0 -0.0171658 -0.00852385 0 0.0172162
0.00844179 0 0.0172162 -0.00848386 0 -0.00758282 0.0177113 0 0.00759938 0.0177235
0 -0.0122727 -0.0149021 0 0.0123323 -0.0148546 0 -0.00175719 -0.0192397 0
[...]
CELL_DATA 15677
FIELD attributes 1
U 3 15677 float
-0.30487 10.2652 0 0.190475 10.9192 0 -0.101143 9.44669 0 0.0315562 10.9901
0 0.118843 10.7323 0 -0.0119276 8.7584 0 0.0455271 11.0075 0
0.0144818 10.9815 0 0.0577116 10.472 0 0.0115298 8.22941 0 0.046694
11.0122 0 0.0433877 11.0311 0 0.0260904 10.9287 0 0.0319061 10.1908
0 0.0113226 7.85622 0 0.0440109 11.0135 0 0.0424018 11.0439 0
0.0428042 11.0209 0 0.0332347 10.8604 0 0.0213694 9.90303 0 0.00644078
7.61207 0 0.0413759 11.0136 0 0.0404421 11.0462 0 0.0402043 11.0449
0 0.0398902 11.005 0 0.0328206 10.7693 0 0.0159507 9.63774 0
0.00250436 7.45892 0 0.038635 11.0131 0 0.0389839 11.0453 0 0.0393783
11.0533 0 0.0384982 11.0446 0 0.0358469 10.9827 0 0.0288561 10.6573
0 0.0121613 9.41264 0 0.000562047 7.36244 0 0.0356094 11.0123 0
0.0373667 11.0435 0 0.0387077 11.056 0 0.0384444 11.0588 0 0.0360478
11.0422 0 0.0318387 10.9529 0 0.0240773 10.5328 0 0.0090204 9.23768
0 1.5544e-05 7.30034 0 0.0323276 11.0113 0 0.0354553 11.0411 0
0.0376165 11.0557 0 0.0378821 11.0641 0 0.0361148 11.0635 0 0.0329136
11.0365 0 0.028418 10.9176 0 0.0194869 10.3983 0 0.00645847 9.10696
0 -0.000238485 7.2578 0 0.0288516 11.0101 0 0.0333225 11.0382 0
0.0362168 11.054 0 0.0369343 11.0653 0 0.035554 11.0718 0 0.0329593
11.0664 0 0.0298176 11.0291 0 0.0254124 10.8761 0 0.0154607 10.2697
0 0.00440388 9.01214 0 -0.000469352 7.23336 0 0.0252585 11.0089 0
0.0309912 11.0348 0 0.0345573 11.0514 0 0.0357137 11.0644 0 0.0346424
11.0747 0 0.0324044 11.0786 0 0.0297721 11.0689 0 0.0268295 11.0215
0 0.0222059 10.8308 0 0.0118389 10.1596 0 0.00266274 8.94626 0
-0.00067316 7.22186 0 0.021547 11.0077 0 0.0284673 11.0312 0 0.0326303
11.0481 0 0.0342276 11.0623 0 0.0334416 11.0747 0 0.0314568 11.0834
0 0.0291095 11.0855 0 0.0266251 11.0726 0 0.0235415 11.0146 0
0.0185098 10.7849 0 0.00844327 10.0709 0 0.00109667 8.90426 0 -0.0010893
7.22391 0 0.01784 11.0065 0 0.0258536 11.0273 0 0.0304218 11.0442
0 0.0324599 11.0593 0 0.0319554 11.0732 0 0.0301707 11.0846 0
0.0279744 11.0925 0 0.0257013 11.094 0 0.0231388 11.0787 0 0.019854
11.0093 0 0.0143881 10.7414 0 0.00513351 10.0057 0 -0.000548053 8.88334
0 -0.00171042 7.23926 0 0.0146432 11.0053 0 0.0231652 11.0233 0
0.0279582 11.0399 0 0.030393 11.0554 0 0.0301749 11.0704 0 0.0285621
11.0836 0 0.0264376 11.0949 0 0.0242067 11.1035 0 0.021808 11.1052
0 0.0191149 11.0877 0 0.015662 11.0066 0 0.00991079 10.7055 0
0.00165758 9.96324 0 -0.00221895 8.8815 0 -0.00237779 7.26826 0 0.0120621
11.0043 0 0.0206167 11.0196 0 0.0252762 11.0351 0 0.0280134 11.0509
0 0.0280839 11.0667 0 0.0266261 11.0812 0 0.0245243 11.0947 0
0.0222331 11.1072 0 0.0197958 11.1172 0 0.0172075 11.1199 0 0.0143688
11.1007 0 0.0107618 11.0081 0 0.0050214 10.6805 0 -0.00192439 9.94258
0 -0.00410955 8.89799 0 -0.00320476 7.31106 0 0.00990849 11.0034 0
0.0183484 11.0164 0 0.0226714 11.0306 0 0.0253264 11.0457 0 0.0256624
11.0621 0 0.0243458 11.0777 0 0.0222321 11.0927 0 0.0198095 11.1077
0 0.0172095 11.1222 0 0.0145013 11.1345 0 0.0117103 11.1389 0
0.00871526 11.1187 0 0.00506093 11.0158 0 -0.000343683 10.6688 0 -0.00579087
9.94268 0 -0.00619953 8.93178 0 -0.00412221 7.36785 0 0.00823449 11.0027
0 0.0163184 11.0136 0 0.0203169 11.0267 0 0.0226428 11.0407 0
0.0228998 11.0567 0 0.0217001 11.0732 0 0.0195449 11.0894 0 0.0169333
11.1061 0 0.0140763 11.1234 0 0.0111018 11.1408 0 0.00810871 11.1562
0 0.00511493 11.1631 0 0.00204179 11.1425 0 -0.00147604 11.0313 0
-0.00621316 10.6716 0 -0.00998172 9.96259 0 -0.00850067 8.98282 0 -0.00512031
7.43842 0 0.00685023 11.0021 0 0.0144177 11.0113 0 0.018153 11.0232
0 0.0201639 11.0362 0 0.0201001 11.0512 0 0.0186739 11.0677 0
0.016443 11.0849 0 0.01359 11.1029 0 0.0103912 11.1221 0 0.00703259
11.1427 0 0.00366448 11.1638 0 0.000388569 11.1831 0 -0.00273566 11.1934
0 -0.00573301 11.1734 0 -0.00887007 11.0561 0 -0.0126246 10.6903 0
-0.0145298 10.0014 0 -0.0109975 9.05032 0 -0.00618644 7.52258 0 0.0057121
11.0017 0 0.0127244 11.0093 0 0.016131 11.0201 0 0.0178322 11.0321
0 0.0174851 11.0462 0 0.0155953 11.0618 0 0.0129129 11.0792 0
0.00976302 11.0983 0 0.00613863 11.119 0 0.00228368 11.1416 0 -0.00160174
11.1662 0 -0.0053606 11.192 0 -0.00884993 11.2161 0 -0.0119603 11.2307
0 -0.0146654 11.2124 0 -0.0171498 11.0916 0 -0.0195928 10.7251 0
-0.0194319 10.0584 0 -0.0136831 9.13381 0 -0.00730225 7.61963 0 0.00477771
11.0014 0 0.0112009 11.0078 0 0.0142726 11.0175 0 0.015648 11.0285
0 0.0150064 11.0415 0 0.0127155 11.0563 0 0.00933546 11.0731 0
0.00544497 11.0924 0 0.001305 11.1142 0 -0.0031638 11.1384 0 -0.00770781
11.1653 0 -0.0121175 11.1949 0 -0.0161959 11.2262 0 -0.0197514 11.256
0 -0.0226389 11.2757 0 -0.0247968 11.2605 0 -0.0263163 11.1388 0
-0.0271036 10.7764 0 -0.0246687 10.1327 0 -0.0165339 9.2325 0 -0.0084684
7.72895 0 0.00403614 11.0011 0 0.0098302 11.0066 0 0.0125783 11.0152
0 0.0136199 11.0253 0 0.012682 11.0372 0 0.00998918 11.0511 0
0.00600179 11.067 0 0.00110326 11.0857 0 -0.00410829 11.1078 0 -0.00932215
11.1332 0 -0.0146791 11.1618 0 -0.0199122 11.194 0 -0.0247733 11.2295
0 -0.0290182 11.2671 0 -0.0324235 11.3035 0 -0.034827 11.3293 0
-0.0361299 11.3184 0 -0.0363401 11.1983 0 -0.0351307 10.8437 0 -0.0302202
10.2236 0 -0.0195345 9.34567 0 -0.00966436 7.84978 0 0.00346727 11.001
0 0.00866128 11.0056 0 0.0110362 11.0133 0 0.0117536 11.0225 0
0.0105238 11.0334 0 0.00744335 11.0461 0 0.00286234 11.0611 0 -0.00291504
11.079 0 -0.00951058 11.1004 0 -0.0161798 11.1261 0 -0.0225282 11.1561
0 -0.02878 11.1901 0 -0.0346294 11.2284 0 -0.0397822 11.2707 0
-0.0439635 11.3156 0 -0.0469399 11.3593 0 -0.0485357 11.3921 0 -0.0486294
11.3866 0 -0.0471608 11.2705 0 -0.0436323 10.9268 0 -0.0360469 10.33
0 -0.0226436 9.47222 0 -0.0108597 7.98091 0 0.0030262 11.0008 0
0.00770424 11.0048 0 0.00968899 11.0117 0 0.0100482 11.0199 0 0.00854106
11.0298 0 0.00509668 11.0416 0 -4.78862e-05 11.0554 0 -0.00667119 11.0723
0 -0.014477 11.0928 0 -0.0229827 11.1177 0 -0.0312327 11.148 0
-0.0387362 11.1836 0 -0.0458137 11.224 0 -0.052114 11.2694 0 -0.0573122
11.3193 0 -0.0611263 11.3722 0 -0.0633213 11.4241 0 -0.0637289 11.4646
0 -0.0622245 11.4656 0 -0.0586982 11.3555 0 -0.0525433 11.0248 0
-0.0420771 10.4505 0 -0.0258118 9.61089 0 -0.012041 8.12109 0 0.00267801
11.0007 0 0.00691727 11.0043 0 0.00856882 11.0105 0 0.00856563 11.0178
0 0.00673875 11.0267 0 0.00296292 11.0373 0 -0.00270232 11.05 0
-0.0101218 11.0656 0 -0.0190859 11.085 0 -0.0292023 11.109 0 -0.0398305
11.1384 0 -0.0497474 11.1743 0 -0.0583475 11.2165 0 -0.0660824 11.2642
0 -0.0725706 11.3176 0 -0.0774819 11.376 0 -0.0805411 11.4377 0
-0.0815364 11.4983 0 -0.0803256 11.5471 0 -0.0768023 11.5554 0 -0.0708329
11.4529 0 -0.0617559 11.1367 0 -0.048253 10.584 0 -0.0290018 9.76033
0 -0.0131969 8.26901 0 0.00239883 11.0006 0 0.00626751 11.0038 0
0.00764332 11.0095 0 0.0073431 11.016 0 0.00518817 11.0239 0 0.0010512
11.0334 0 -0.00508125 11.0449 0 -0.013232 11.0592 0 -0.0232839 11.0772
0 -0.03494 11.0999 0 -0.0476592 11.1282 0 -0.0605928 11.1631 0
-0.0721867 11.2057 0 -0.081719 11.2555 0 -0.0898339 11.3115 0 -0.0961475
11.3737 0 -0.100343 11.4413 0 -0.10218 11.5123 0 -0.101493 11.5821
0 -0.0981965 11.6396 0 -0.092232 11.656 0 -0.0834426 11.5623 0
-0.0711635 11.2613 0 -0.0545019 10.7291 0 -0.0321775 9.9191 0 -0.0143069
8.42327 0 0.00217192 11.0006 0 0.00572683 11.0035 0 0.0068727 11.0087
0 0.00634033 11.0146 0 0.00392674 11.0216 0 -0.000561021 11.0298 0
-0.00717066 11.04 0 -0.0159751 11.053 0 -0.0270261 11.0694 0 -0.0401299
11.0905 0 -0.0548502 11.1174 0 -0.0704424 11.1511 0 -0.0857967 11.1926
0 -0.0989716 11.2429 0 -0.10915 11.3013 0 -0.117252 11.3665 0
-0.122916 11.4382 0 -0.12587 11.5156 0 -0.125943 11.5963 0 -0.123052
11.6756 0 -0.117182 11.742 0 -0.108334 11.7669 0 -0.0963868 11.6829
0 -0.0806787 11.3974 0 -0.0607446 10.8842 0 -0.0353002 10.0856 0
-0.0153597 8.58241 0 0.00198534 11.0005 0 0.00527402 11.0032 0 0.00622727
11.008 0 0.00551403 11.0134 0 0.00290842 11.0196 0 -0.00184077 11.0269
0 -0.00888512 11.0356 0 -0.0183312 11.047 0 -0.0302772 11.0618 0
-0.0447147 11.0811 0 -0.0613212 11.1062 0 -0.0794648 11.1382 0 -0.0981403
11.1783 0 -0.115929 11.2274 0 -0.13046 11.2865 0 -0.140865 11.3545
0 -0.148433 11.4298 0 -0.152864 11.5117 0 -0.15397 11.5993 0
-0.15168 11.6899 0 -0.146015 11.7787 0 -0.13707 11.8541 0 -0.124923
11.8875 0 -0.109503 11.8137 0 -0.0901878 11.5434 0 -0.0669065 11.0477
0 -0.0383373 10.2584 0 -0.0163573 8.74502 0 0.00183034 11.0004 0
0.00489242 11.0029 0 0.00568356 11.0075 0 0.00483046 11.0124 0 0.00208524
11.018 0 -0.00284415 11.0243 0 -0.0101988 11.0318 0 -0.020204 11.0414
0 -0.0330098 11.0543 0 -0.0486475 11.0717 0 -0.0669994 11.0947 0
-0.0875571 11.1246 0 -0.109432 11.1628 0 -0.131304 11.2104 0 -0.151412
11.2682 0 -0.166934 11.3373 0 -0.177005 11.4159 0 -0.183388 11.5018
0 -0.185891 11.5945 0 -0.184455 11.6924 0 -0.179153 11.793 0
-0.170142 11.8912 0 -0.157626 11.9753 0 -0.1418 12.0172 0 -0.122638
11.9535 0 -0.0995799 11.698 0 -0.0729256 11.2181 0 -0.0412684 10.4357
0 -0.0172153 8.91002 0 0.00170044 11.0004 0 0.00456896 11.0027 0
0.00522286 11.007 0 0.00426268 11.0116 0 0.00141862 11.0166 0 -0.00362792
11.0222 0 -0.0111842 11.0286 0 -0.0215785 11.0366 0 -0.0351128 11.0474
0 -0.0518917 11.0624 0 -0.0718237 11.0831 0 -0.0946267 11.1106 0
-0.119543 11.1464 0 -0.145367 11.1919 0 -0.170423 11.2481 0 -0.192595
11.3159 0 -0.208577 11.3958 0 -0.217585 11.4858 0 -0.221997 11.583
0 -0.221788 11.6866 0 -0.21707 11.7949 0 -0.208087 11.9053 0
-0.195156 12.0125 0 -0.178612 12.105 0 -0.158762 12.155 0 -0.135648
12.1011 0 -0.108756 11.8595 0 -0.0787587 11.3936 0 -0.044025 10.6164
0 -0.0185284 9.0746 0 0.00159074 11.0004 0 0.00429322 11.0026 0
0.00483012 11.0066 0 0.00378913 11.0108 0 0.000877602 11.0154 0 -0.00423788
11.0203 0 -0.0119122 11.0258 0 -0.0225501 11.0324 0 -0.0365845 11.0412
0 -0.0543152 11.0537 0 -0.0757447 11.0715 0 -0.100594 11.0963 0
-0.128357 11.1293 0 -0.157958 11.1721 0 -0.187825 11.2261 0 -0.215909
11.2922 0 -0.239702 11.3708 0 -0.255431 11.4626 0 -0.262502 11.5646
0 -0.264054 11.6734 0 -0.26028 11.788 0 -0.251505 11.9066 0
-0.238171 12.0264 0 -0.220766 12.1421 0 -0.199775 12.2422 0 -0.175613
12.2997 0 -0.148393 12.2551 0 -0.117643 12.0263 0 -0.0843345 11.573
0 -0.0472392 10.7983 0 -0.0197568 9.2685 0 0.00149744 11.0003 0
0.00405697 11.0024 0 0.00449566 11.0063 0 0.00339244 11.0102 0 0.000437461
11.0144 0 -0.00471068 11.0187 0 -0.0124398 11.0233 0 -0.0232103 11.0288
0 -0.0375523 11.0358 0 -0.0559329 11.0458 0 -0.0786021 11.0604 0
-0.105394 11.0818 0 -0.13577 11.1117 0 -0.168928 11.1513 0 -0.203426
11.2024 0 -0.237291 11.266 0 -0.268042 11.3431 0 -0.292827 11.4337
0 -0.307418 11.5381 0 -0.311546 11.6526 0 -0.309256 11.7732 0
-0.301014 11.8986 0 -0.28739 12.027 0 -0.26905 12.1556 0 -0.246669
12.279 0 -0.220865 12.386 0 -0.192165 12.4503 0 -0.160764 12.4142
0 -0.126149 12.1972 0 -0.0900375 11.7541 0 -0.0500686 11.0015 0
-0.0200799 9.46776 0 0.00141751 11.0003 0 0.00385373 11.0023 0 0.00420725
11.006 0 0.00305854 11.0097 0 7.84389e-05 11.0135 0 -0.00507552 11.0173
0 -0.0128128 11.0212 0 -0.0236323 11.0256 0 -0.0381345 11.0311 0
-0.0569127 11.0389 0 -0.0804296 11.0505 0 -0.108827 11.0679 0 -0.141695
11.0938 0 -0.178147 11.1298 0 -0.217036 11.1772 0 -0.256499 11.2377
0 -0.294103 11.3123 0 -0.326969 11.4015 0 -0.351925 11.505 0
-0.36433 11.6226 0 -0.364383 11.7499 0 -0.357198 11.8821 0 -0.343559
12.018 0 -0.324313 12.1557 0 -0.300361 12.2922 0 -0.272556 12.4225
0 -0.241645 12.5355 0 -0.208264 12.6055 0 -0.172636 12.5771 0
-0.134479 12.3702 0 -0.0954583 11.9566 0 -0.0519131 11.2245 0 -0.0204825
9.66261 0 0.0013485 11.0003 0 0.0036783 11.0022 0 0.00395797 11.0058
0 0.00277786 11.0093 0 -0.000215304 11.0128 0 -0.0053556 11.0161 0
-0.0130671 11.0194 0 -0.0238741 11.0228 0 -0.0384261 11.027 0 -0.0574088
11.0328 0 -0.0814466 11.0417 0 -0.110949 11.0554 0 -0.145885 11.0764
0 -0.185499 11.1077 0 -0.228489 11.1511 0 -0.273301 11.2076 0
-0.31759 11.2789 0 -0.358474 11.3656 0 -0.392692 11.4679 0 -0.416798
11.585 0 -0.425809 11.7163 0 -0.420562 11.8563 0 -0.407392 11.9999
0 -0.387439 12.1456 0 -0.361841 12.2917 0 -0.331733 12.4354 0
-0.298134 12.5715 0 -0.261908 12.6893 0 -0.223748 12.7643 0 -0.184078
12.7421 0 -0.14283 12.564 0 -0.100279 12.1796 0 -0.0539332 11.4436
0 -0.0209138 9.85094 0 0.00128906 11.0003 0 0.0035261 11.0021 0
0.00374283 11.0055 0 0.00253984 11.0089 0 -0.000456241 11.0121 0 -0.00556932
11.0151 0 -0.0132312 11.0178 0 -0.0239816 11.0204 0 -0.0385025 11.0233
0 -0.0575445 11.0275 0 -0.0818525 11.0339 0 -0.112042 11.0442 0
-0.148413 11.0607 0 -0.19067 11.0862 0 -0.237633 11.1241 0 -0.287488
11.1761 0 -0.338218 11.2431 0 -0.386984 11.3264 0 -0.430459 11.4265
0 -0.465037 11.5428 0 -0.487084 11.6741 0 -0.491367 11.8191 0
-0.479538 11.9717 0 -0.459291 12.126 0 -0.432148 12.2809 0 -0.399537
12.4344 0 -0.36281 12.5841 0 -0.323138 12.7248 0 -0.281451 12.8466
0 -0.238574 12.925 0 -0.195792 12.9272 0 -0.150754 12.7779 0
-0.10489 12.3994 0 -0.0558758 11.6563 0 -0.021273 10.0314 0 0.003393
11.0021 0 0.00121723 11.0003 0 0.00355539 11.0054 0 0.00233719 11.0085
0 -0.000654416 11.0115 0 -0.00573122 11.0142 0 -0.0133274 11.0163 0
-0.0239907 11.0182 0 -0.0384223 11.0202 0 -0.0574174 11.0227 0 -0.0818069
11.027 0 -0.112362 11.0343 0 -0.149641 11.0466 0 -0.193754 11.0667
0 -0.244069 11.0977 0 -0.298862 11.1434 0 -0.355721 11.2054 0
-0.412151 11.2843 0 -0.464803 11.381 0 -0.509929 11.4954 0 -0.543655
11.6265 0 -0.562271 11.7722 0 -0.560401 11.931 0 -0.540687 12.0956
0 -0.512308 12.26 0 -0.477168 12.4229 0 -0.436971 12.5828 0
-0.393262 12.7372 0 -0.347314 12.8816 0 -0.300142 13.0057 0 -0.253959
13.1054 0 -0.207252 13.1317 0 -0.157974 12.9891 0 -0.109067 12.6136
0 -0.0575378 11.8609 0 -0.0215416 10.2035 0 0.00338923 11.0052 0
0.00323661 11.002 0 0.00113033 11.0002 0 0.00216303 11.0082 0 -0.000817803
11.011 0 -0.00585247 11.0134 0 -0.0133731 11.0151 0 -0.023929 11.0164
0 -0.0382316 11.0174 0 -0.0571035 11.0186 0 -0.0814357 11.0209 0
-0.112113 11.0254 0 -0.149891 11.034 0 -0.195202 11.049 0 -0.247907
11.0735 0 -0.306916 11.1113 0 -0.369849 11.1661 0 -0.433645 11.2397
0 -0.495302 11.3319 0 -0.550977 11.4431 0 -0.596565 11.5728 0
-0.62803 11.7191 0 -0.641714 11.8794 0 -0.632211 12.0516 0 -0.603333
12.2275 0 -0.565834 12.4009 0 -0.521986 12.5708 0 -0.473739 12.7358
0 -0.422776 12.8939 0 -0.370458 13.0404 0 -0.319687 13.1845 0
-0.269291 13.3047 0 -0.217577 13.3337 0 -0.164435 13.1954 0 -0.112651
12.8205 0 -0.0589082 12.0567 0 -0.021712 10.3668 0 0.00200804 11.0079
0 0.00320658 11.005 0 0.00303903 11.0019 0 0.00104703 11.0002 4.29344e-19
-0.000954288 11.0106 0 -0.00594169 11.0127 0 -0.0133813 11.014 0 -0.0238181
11.0147 0 -0.0379654 11.0149 0 -0.0566618 11.0149 0 -0.0808372 11.0155
0 -0.111457 11.0176 0 -0.149423 11.0229 0 -0.19542 11.0333 0
-0.2497 11.0517 0 -0.311761 11.0817 0 -0.379953 11.1274 0 -0.451147
11.193 0 -0.521551 11.2796 0 -0.587677 11.3864 0 -0.645238 11.5133
0 -0.689867 11.659 0 -0.717492 11.8209 0 -0.724649 11.9955 0
-0.70603 12.1804 0 -0.66677 12.3667 0 -0.619264 12.548 0 -0.566115
12.7235 0 -0.509461 12.8925 0 -0.451083 13.0527 0 -0.394779 13.2187
0 -0.339414 13.3819 0 -0.283069 13.5017 0 -0.226806 13.5313 0
-0.170028 13.3949 0 -0.115663 13.019 0 -0.0600055 12.2431 0 -0.0217878
10.5209 0 -0.00107862 11.0102 0 0.00185589 11.0076 0 0.00299028 11.0047
1.87967e-18 0.00284754 11.0017 -1.35936e-18 0.000966887 11.0002 -8.71347e-19 -0.00600725 11.0121 0
-0.0133617 11.0131 0 -0.0236738 11.0133 0 -0.0376509 11.0127 0 -0.0561375
11.0117 0 -0.0800874 11.0107 0 -0.11052 11.0107 0 -0.148445 11.0129
0 -0.194735 11.0192 0 -0.249952 11.0322 0 -0.314073 11.055 0
-0.386135 11.0917 0 -0.463832 11.1468 0 -0.543147 11.2247 0 -0.619537
11.3258 0 -0.689078 11.4486 0 -0.747121 11.5921 0 -0.789158 11.7542
0 -0.81123 11.9317 0 -0.810224 12.1202 0 -0.781045 12.3169 0
-0.730287 12.5124 0 -0.672016 12.7002 0 -0.609098 12.8802 0 -0.543802
13.0515 0 -0.480937 13.2312 0 -0.41954 13.4159 0 -0.357185 13.5773
0 -0.295372 13.6946 0 -0.234852 13.7228 0 -0.174777 13.5868 0
-0.118148 13.2086 0 -0.0608556 12.4197 0 -0.0217815 10.6658 0 -0.00607131
11.0115 0 -0.00116218 11.0097 -3.80504e-18 0.00168729 11.0072 -1.97916e-18 0.00277986 11.0045
9.54231e-19 0.00265939 11.0016 -9.19247e-19 0.000889963 11.0002 0 -0.013323 11.0123 0
-0.023507 11.012 0 -0.0373077 11.0108 0 -0.055565 11.0089 0 -0.0792442
11.0065 0 -0.1094 11.0046 0 -0.147117 11.0041 0 -0.193406 11.0067
0 -0.24907 11.0147 0 -0.314466 11.0309 0 -0.389201 11.0592 0
-0.471766 11.1039 0 -0.559047 11.17 0 -0.646057 11.2618 0 -0.727498
11.379 0 -0.799102 11.5189 0 -0.855969 11.6798 0 -0.893601 11.8586
0 -0.90832 12.0513 0 -0.897517 12.253 0 -0.856424 12.4604 0
-0.793192 12.6637 0 -0.723546 12.8567 0 -0.650526 13.0394 0 -0.580135
13.2305 0 -0.511527 13.4288 0 -0.441923 13.6111 0 -0.373067 13.7686
0 -0.306142 13.8817 0 -0.241733 13.9071 0 -0.178741 13.7703 0
-0.120152 13.3888 0 -0.0614887 12.5865 0 -0.0217075 10.8015 0 -0.013298
11.0115 0 -0.00603986 11.0109 8.00834e-18 -0.00121207 11.0091 0 0.00152554 11.0068
2.00797e-18 0.00257657 11.0042 5.87585e-22 0.0024752 11.0015 0 0.000816244 11.0002 0
-0.0233271 11.0109 0 -0.0369487 11.0091 0 -0.0549691 11.0063 0 -0.0783517
11.0028 0 -0.108171 10.9992 0 -0.145562 10.9963 0 -0.191637 10.9957
0 -0.247378 10.9991 0 -0.313442 11.0094 0 -0.389896 11.0299 0
-0.475901 11.0649 0 -0.56925 11.1191 0 -0.665922 11.1978 0 -0.759882
11.3052 0 -0.845114 11.4399 0 -0.917137 11.5979 0 -0.970948 11.7766
0 -1.00223 11.972 0 -1.00776 12.1794 0 -0.985577 12.3933 0
-0.931341 12.61 0 -0.85483 12.8197 0 -0.773356 13.0161 0 -0.694503
13.219 0 -0.617545 13.4289 0 -0.539284 13.6245 0 -0.461954 13.8024
0 -0.387028 13.9543 0 -0.315402 14.062 0 -0.247526 14.0836 0
-0.181986 13.945 0 -0.121726 13.5593 0 -0.0619351 12.7433 0 -0.0215783
10.9283 0 -0.0231815 11.0099 0 -0.0131005 11.0106 4.899e-22 -0.00589 11.0101
0 -0.00125984 11.0085 -2.11304e-18 0.00137272 11.0064 4.22017e-22 0.00238055 11.004 0
0.00229501 11.0014 0 0.000745719 11.0001 0 -0.0365834 11.0076 0 -0.054365
11.0041 0 -0.0774412 10.9996 0 -0.106889 10.9944 0 -0.143876 10.9894
0 -0.189585 10.9858 0 -0.245132 10.9852 0 -0.311401 10.9901 0
-0.388829 11.0036 0 -0.477126 11.0295 0 -0.574861 11.0726 0 -0.679024
11.138 0 -0.784587 11.231 0 -0.884412 11.3556 0 -0.971848 11.509
0 -1.04238 11.6859 0 -1.09107 11.8826 0 -1.11398 12.0944 0
-1.1085 12.3155 0 -1.07346 12.5402 0 -1.00501 12.7648 0 -0.914588
12.9791 0 -0.826396 13.1963 0 -0.739962 13.4184 0 -0.651623 13.6256
0 -0.564183 13.8166 0 -0.47962 13.9883 0 -0.399105 14.1335 0
-0.32325 14.2349 0 -0.252324 14.2518 0 -0.184583 14.1105 0 -0.122921
13.7201 0 -0.062221 12.8903 0 -0.0214053 11.0464 0 -0.0362802 11.0063
0 -0.0227569 11.0088 -4.42882e-18 -0.0126565 11.0096 0 -0.00574479 11.0093 0
-0.00129432 11.008 6.42776e-18 0.00122873 11.006 0 0.00219164 11.0037 0 0.00211898
11.0013 1.9155e-18 0.000678391 11.0001 0 -0.0537628 11.0022 0 -0.0765313 10.9967
0 -0.105595 10.9902 0 -0.142131 10.9833 0 -0.187371 10.9771 0
-0.242528 10.9729 0 -0.308659 10.9729 0 -0.386488 10.98 0 -0.476172
10.9976 0 -0.576927 11.0303 0 -0.686625 11.0831 0 -0.801344 11.1614
0 -0.914961 11.2705 0 -1.01921 11.4137 0 -1.10695 11.587 0
-1.17384 11.7833 0 -1.21523 11.998 0 -1.22773 12.2253 0 -1.2095
12.4591 0 -1.16026 12.6932 0 -1.07669 12.9237 0 -0.978423 13.1597
0 -0.881408 13.3968 0 -0.781511 13.6165 0 -0.682271 13.8188 0
-0.586216 14.0033 0 -0.494972 14.1677 0 -0.409409 14.3054 0 -0.329802
14.3998 0 -0.256224 14.4114 0 -0.186607 14.2668 0 -0.123787 13.8712
0 -0.0623719 13.0278 0 -0.0211987 11.1563 0 -0.0532595 11.0004 0
-0.035553 11.0048 0 -0.0219011 11.0074 -4.84e-18 -0.0122291 11.0086 -4.67094e-18 -0.0055802
11.0085 -9.00992e-18 -0.00131542 11.0074 0 0.00109366 11.0056 -4.18452e-18 0.00201009 11.0035
-4.03032e-18 0.00194709 11.0013 1.93979e-18 0.000614126 11.0001 0 -0.0756326 10.9941 0
-0.104311 10.9865 0 -0.140378 10.9779 0 -0.185086 10.9693 0 -0.239717
10.962 0 -0.305461 10.9577 0 -0.383261 10.9589 0 -0.47363 10.969
0 -0.576317 10.9921 0 -0.689942 11.033 0 -0.811569 11.0972 0