#           x             T
    -0.118946       349.732
    -0.118121       349.722
    -0.117174       349.717
    -0.116087       349.714
    -0.114839       349.712
    -0.113407        349.71
    -0.111763       349.709
    -0.109877       349.708
    -0.107712       349.707
    -0.105226       349.706
    -0.102373       349.707
   -0.0990994       349.709
   -0.0953416       349.716
   -0.0914285       349.731
    -0.087619       349.762
   -0.0838095       349.823
        -0.08       349.943
   -0.0761904       350.174
   -0.0723809       350.614
   -0.0685714       351.437
   -0.0649271        352.86
    -0.061624       355.058
   -0.0586549       358.128
   -0.0559862       362.029
   -0.0535874        366.57
   -0.0514312       371.455
   -0.0494932       376.336
   -0.0477512       380.869
   -0.0461853       384.789
   -0.0447779       387.938
   -0.0435128        390.29
   -0.0423757       391.924
   -0.0413536       392.969
   -0.0404349       393.593
     -0.03925       393.932
     -0.03775       393.918
     -0.03625       393.615
     -0.03475       393.175
     -0.03325       392.706
     -0.03175       392.264
     -0.03025       391.874
     -0.02875       391.542
     -0.02725       391.269
     -0.02575        391.05
   -0.0243993       390.882
   -0.0231362        390.75
    -0.021743        390.63
   -0.0202065       390.517
   -0.0185118       390.408
   -0.0171075       390.325
   -0.0161272        390.27
   -0.0145812       390.189
    -0.012414       390.081
   -0.0103452       389.989
  -0.00847254       389.915
  -0.00711441       389.869
  -0.00630907       389.845
  -0.00524316       389.817
  -0.00385435       389.791
  -0.00259726       389.779
  -0.00133333       389.777
            0       389.789
   0.00133333       389.816
   0.00260066       389.857
   0.00386381       389.912
   0.00525697       389.992
   0.00631696       390.064
   0.00712283       390.126
    0.0084882       390.243
    0.0103573       390.429
    0.0124188       390.671
    0.0145859       390.961
    0.0161321       391.187
     0.017115       391.343
    0.0185274       391.582
    0.0202225       391.891
    0.0217568       392.186
    0.0231456       392.449
    0.0244027       392.704
      0.02575       392.989
      0.02725       393.306
      0.02875       393.634
      0.03025       393.961
      0.03175       394.273
      0.03325       394.532
      0.03475       394.662
      0.03625       394.516
      0.03775       393.926
      0.03925       392.821
    0.0404349       391.454
    0.0413536       390.015
    0.0423757        388.25
    0.0435128       386.008
    0.0447779       383.238
    0.0461853       379.934
    0.0477511       376.156
    0.0494932       372.036
    0.0514312       367.776
    0.0535874       363.625
    0.0559862       359.831
    0.0586549        356.61
     0.061624         354.1
    0.0649271        352.31
    0.0685714       351.149
    0.0723809       350.471
    0.0761904       350.105
         0.08       349.911
    0.0838095       349.809
     0.087619       349.756
    0.0914285       349.729
    0.0953419       349.716
    0.0991002        349.71
     0.102374       349.709
     0.105227       349.708
     0.107713       349.709
     0.109878        349.71
     0.111765       349.711
     0.113408       349.712
      0.11484       349.714
     0.116088       349.716
     0.117175       349.719
     0.118122       349.725
     0.118947       349.734
     0.119665       349.743
