#           x             T
    -0.118947       349.743
    -0.118121        349.74
    -0.117174       349.736
    -0.116087       349.733
     -0.11484        349.73
    -0.113408       349.728
    -0.111764       349.726
    -0.109877       349.724
    -0.107712       349.723
    -0.105227       349.722
    -0.102374        349.72
   -0.0990995        349.72
   -0.0953416        349.72
   -0.0914285       349.724
   -0.0876191       349.735
   -0.0838095       349.759
        -0.08       349.813
   -0.0761904       349.925
   -0.0723809       350.158
   -0.0685715       350.636
   -0.0649271        351.55
    -0.061624       353.134
    -0.058655       355.634
   -0.0559862       359.209
   -0.0535874       363.809
   -0.0514313       369.167
   -0.0494932       374.856
   -0.0477512       380.366
   -0.0461853       385.229
   -0.0447779       389.152
   -0.0435128       392.084
   -0.0423757        394.15
   -0.0413536       395.538
   -0.0404349        396.45
     -0.03925       397.027
     -0.03775       397.056
     -0.03625       396.431
     -0.03475       395.399
     -0.03325       394.269
     -0.03175       393.219
     -0.03025       392.315
     -0.02875       391.565
     -0.02725       390.962
     -0.02575       390.493
   -0.0243994       390.153
   -0.0231362       389.906
    -0.021743       389.706
   -0.0202065       389.552
   -0.0189203        389.46
   -0.0180315        389.41
   -0.0166427       389.351
   -0.0145812       389.295
    -0.012414       389.266
   -0.0110231       389.253
   -0.0100402       389.247
  -0.00847254       389.239
  -0.00677747       389.235
  -0.00524316       389.232
  -0.00385435       389.233
  -0.00288618       389.236
  -0.00228892       389.239
  -0.00133333       389.244
            0       389.254
   0.00133333        389.27
     0.002289       389.284
   0.00288966       389.295
   0.00386381       389.313
   0.00525697       389.343
   0.00679351       389.381
    0.0084882       389.427
    0.0100473       389.474
    0.0110276       389.503
    0.0124188       389.544
    0.0145859       389.607
    0.0166548       389.672
    0.0180384       389.718
    0.0189282       389.749
    0.0202225       389.799
    0.0217568        389.87
    0.0231456       389.963
    0.0244027       390.079
      0.02575        390.25
      0.02725       390.511
      0.02875       390.888
      0.03025       391.414
      0.03175       392.129
      0.03325       393.063
      0.03475       394.208
      0.03625       395.441
      0.03775       396.475
      0.03925       396.915
    0.0404349       396.669
    0.0413536       395.979
    0.0423757       394.776
    0.0435128       392.871
    0.0447779       390.055
    0.0461853       386.161
    0.0477511       381.208
    0.0494932       375.499
    0.0514312        369.59
    0.0535874       364.034
    0.0559862       359.289
    0.0586549       355.634
     0.061624       353.105
    0.0649271        351.52
    0.0685714       350.613
    0.0723809       350.143
    0.0761904       349.916
         0.08       349.807
    0.0838095       349.755
     0.087619       349.732
    0.0914285       349.722
    0.0953419       349.719
    0.0991002       349.718
     0.102374       349.719
     0.105227       349.721
     0.107713       349.722
     0.109878       349.724
     0.111765       349.725
     0.113408       349.727
      0.11484       349.729
     0.116088       349.732
     0.117175       349.736
     0.118122       349.739
     0.118947       349.742
     0.119665       349.746
