# vtk DataFile Version 2.0
sampleSurface
ASCII
DATASET POLYDATA
POINTS 15978 float
-4.26165e-19 0.000133477 0 -4.18079e-19 -0.000798814 0 -4.33681e-19 0.001 0 -4.09379e-19 -0.00180187
0 -0.00181681 0.000361473 0 0.00181681 0.000361473 0 -0.00181396 -0.000575145 0
0.00181396 -0.000575145 0 -0.00181945 0.00123202 0 0.00181945 0.00123202 0 -0.00181089
-0.00158285 0 0.00181089 -0.00158285 0 -4.00018e-19 -0.00288105 0 -0.00180759 -0.00266704
0 0.00180759 -0.00266704 0 -0.00351565 8.15481e-05 0 0.00351565 8.15481e-05 0
-0.00351186 -0.000939823 0 0.00351186 -0.000939823 0 -0.00351918 0.00103087 0 0.00351918
0.00103087 0 -0.00352245 0.00191322 0 0.00352245 0.00191322 0 -3.89947e-19 -0.00404214
0 -0.00350777 -0.00203871 0 0.00350777 -0.00203871 0 -0.00180405 -0.00383352 0
0.00180405 -0.00383352 0 -0.00350338 -0.00322101 0 0.00350338 -0.00322101 0 -0.005
8.60602e-05 0 0.005 8.60602e-05 0 -0.005 -0.00103629 0 0.005 -0.00103629
0 -0.005 0.00112923 0 0.005 0.00112923 0 -3.79112e-19 -0.00529135 0
-0.00180023 -0.00508853 0 0.00180023 -0.00508853 0 -0.005 0.00209882 0 0.005
0.00209882 0 -0.005 -0.00224382 0 0.005 -0.00224382 0 -0.00349866 -0.00449304
0 0.00349866 -0.00449304 0 -0.005 0.003 0 0.005 0.003 0
-0.005 -0.003543 0 0.005 -0.003543 0 -0.00637208 2.82617e-05 0 0.00639053
4.25732e-05 0 -0.00637208 0.00114892 0 -0.00637208 -0.00117745 0 0.00639053 -0.00116311
0 0.00639053 0.00116321 0 -3.67455e-19 -0.00663538 0 -0.00179612 -0.00643879 0
0.00179612 -0.00643879 0 -0.00637208 0.00219052 0 0.00639053 0.00220479 0 -0.00349357
-0.00586162 0 0.00349357 -0.00586162 0 -0.00637208 -0.00247467 0 0.00639053 -0.00246031
0 -0.005 -0.00494079 0 0.005 -0.00494079 0 -0.00637208 0.00315864 0
0.00639053 0.00317289 0 -0.00637208 -0.00387036 0 0.00639053 -0.00385597 0 -0.00637208
0.00405846 0 0.00639053 0.00407269 0 -0.00778421 -7.99569e-05 0 0.00781802 -5.3679e-05
0 -0.00778421 0.00112388 0 0.00781802 0.00115011 0 -0.00778421 -0.00137517 0
0.00781802 -0.00134884 0 -3.54912e-19 -0.00808142 0 -0.0017917 -0.00789154 0 0.0017917
-0.00789154 0 -0.00778421 0.0022428 0 -0.0034881 -0.00733407 0 0.0034881 -0.00733407
0 0.00781802 0.00226899 0 -0.005 -0.00644467 0 0.005 -0.00644467 0
-0.00778421 -0.00276868 0 0.00781802 -0.0027423 0 -0.00637208 -0.00537197 0 0.00639053
-0.00535755 0 -0.00778421 0.00328278 0 0.00781802 0.00330893 0 -0.00778421 0.00424939
0 -0.00778421 -0.00426796 0 0.00781802 -0.00424152 0 0.00781802 0.00427551 0
-0.00923755 -0.000243565 0 0.00928347 -0.000207818 0 -0.00923755 0.00104957 0 -0.00778421
0.00514782 0 0.00928347 0.00108525 0 0.00781802 0.0051739 0 -0.00923755 -0.00163485
0 0.00928347 -0.00159903 0 -0.00637208 -0.00698755 0 0.00639053 -0.0069731 0
-0.005 -0.0080627 0 0.005 -0.0080627 0 -0.00923755 0.00225148 0 0.00928347
0.0022871 0 -0.00348222 -0.00891827 0 0.00348222 -0.00891827 0 -0.00178695 -0.00945455
0 0.00178695 -0.00945455 0 -3.41418e-19 -0.00963721 0 -0.00923755 -0.00313172 0
-0.00778421 -0.00588103 0 0.00781802 -0.00585453 0 0.00928347 -0.00309583 0 -0.00923755
0.0033686 0 0.00928347 0.00340416 0 -0.00923755 0.00440692 0 0.00928347 0.00444243
0 -0.00923755 -0.00474221 0 0.00928347 -0.00470623 0 -0.00923755 0.00537198 0
-0.0107333 -0.000467921 0 0.00928347 0.00540745 0 -0.0107333 0.000921062 0 0.0107879
-0.000425364 0 0.00639053 -0.00871127 0 -0.00637208 -0.00872575 0 0.0107879 0.000963535
0 -0.00778421 -0.00761653 0 0.00781802 -0.00758997 0 -0.0107333 -0.00196233 0
0.0107879 -0.00191968 0 -0.0107333 0.00221206 0 -0.005 -0.00980352 0 0.005
-0.00980352 0 0.0107879 0.00225445 0 -0.00923755 0.00626897 0 -0.00347589 -0.0106227
0 0.00347589 -0.0106227 0 0.00928347 0.00630439 0 -0.0107333 0.00341198 0
-0.00178183 -0.0111362 0 0.00178183 -0.0111362 0 -0.00923755 -0.00647493 0 0.00928347
-0.00643887 0 -3.26899e-19 -0.0113111 0 -0.0107333 -0.00357015 0 0.0107879 0.00345431
0 0.0107879 -0.00352741 0 -0.0107333 0.00452726 0 0.0107879 0.00456952 0
-0.0107333 -0.00530001 0 0.0107879 -0.00525717 0 -0.0107333 0.00556386 0 0.0107879
0.00560606 0 -0.000743369 0.0122055 0 0.000743369 0.0122055 0 -0.00778421 -0.00948375
0 0.00781802 -0.00945713 0 -0.0122727 0.000733061 0 -0.0122727 -0.000758799 0
0.0123323 -0.000712262 0 0.0123323 0.0007795 0 0.00639053 -0.0105814 0 -0.00637208
-0.0105959 0 -0.00923755 -0.00833916 0 -0.0122727 0.00211968 0 0.00928347 -0.00830301
0 -0.0122727 -0.00236389 0 0.0123323 0.00216603 0 0.0123323 -0.00231725 0
-0.0107333 0.00652734 0 0.0107879 0.00656947 0 -0.005 -0.0116765 0 0.005
-0.0116765 0 -0.0122727 0.00340848 0 0.0123323 0.00345474 0 -0.000741126 0.0128136
0 0.000741126 0.0128136 0 -0.0107333 -0.00716117 0 0.0107879 -0.00711821 0
-0.00346908 -0.0124565 0 0.00346908 -0.0124565 0 -0.0122727 -0.00409081 0 0.0123323
-0.00404405 0 -0.0107333 0.00742284 0 -0.00177633 -0.0129455 0 0.00177633 -0.0129455
0 -0.0122727 0.00460636 0 -3.11279e-19 -0.013112 0 0.0107879 0.00746492 0
-0.002 0.013 0 0.002 0.013 0 0.0123323 0.00465255 0 -0.0007387
0.0134712 0 0.0007387 0.0134712 0 -0.0122727 0.00571974 0 0.0123323 0.00576585
0 -0.0122727 -0.00594879 0 0.0123323 -0.00590191 0 -0.002 0.0135849 0
0.002 0.0135849 0 -0.0138571 0.000479853 0 -0.00923755 -0.0103449 0 0.00928347
-0.0103086 0 0.00781802 -0.011466 0 -0.00778421 -0.0114927 0 -0.0138571 -0.00112242
0 0.0139177 0.000527252 0 0.0139177 -0.00107491 0 -0.0138571 0.0019691 0
-0.0122727 0.00675458 0 0.0139177 0.00201639 0 0.0123323 0.00680062 0 -0.0107333
-0.00916358 0 0.00639053 -0.0125934 0 0.0107879 -0.0091205 0 -0.00637208 -0.012608
0 -0.0138571 -0.0028463 0 0.0139177 -0.00279868 0 -0.000736077 0.0141824 0
0.000736077 0.0141824 0 -0.00319452 0.0138829 0 0.00320133 0.0138879 0 -0.0138571
0.00335328 0 0.0139177 0.00340049 0 -0.002 0.0142174 0 0.002 0.0142174
0 -0.0122727 0.00771641 0 0.0123323 0.00776239 0 -0.005 -0.0136916 0
0.005 -0.0136916 0 -0.0138571 0.00463982 0 -0.0122727 -0.0079478 0 -0.0138571
-0.00470103 0 0.0123323 -0.00790078 0 0.0139177 -0.00465328 0 0.0139177 0.00468694
0 -0.00319452 0.0144678 0 0.00320133 0.0144728 0 -0.00346175 -0.0144295 0
0.00346175 -0.0144295 0 -0.00073324 0.0149515 0 0.00073324 0.0149515 0 -0.0122727
0.00861039 0 -0.00177041 -0.0148921 0 0.00177041 -0.0148921 0 -0.002 0.0149014
0 0.002 0.0149014 0 -0.0138571 0.0058356 0 -2.94473e-19 -0.0150496 0
0.0123323 0.00865631 0 0.0139177 0.00588264 0 -0.0138571 -0.00669653 0 0.0139177
-0.00664864 0 -0.00319452 0.0151003 0 0.00320133 0.0151053 0 -0.0154877 0.000155282
0 -0.0138571 0.00694702 0 -0.00451419 0.0148583 0 0.0045263 0.0148673 0
0.00928347 -0.0124665 0 -0.00923755 -0.0125028 0 0.0155453 0.000200444 0 -0.0154877
-0.00156548 0 0.0139177 0.00699399 0 -0.0154877 0.00175466 0 -0.0107333 -0.011318
0 0.0107879 -0.0112748 0 0.0155453 -0.00152021 0 0.0155453 0.00179972 0
0.00781802 -0.0136273 0 -0.00778421 -0.0136541 0 -0.002 0.0156411 0 0.002
0.0156411 0 -0.000730172 0.0157833 0 0.000730172 0.0157833 0 -0.0154877 0.0032412
0 -0.0154877 -0.00341685 0 0.0155453 0.00328617 0 -0.0122727 -0.0100985 0
0.0155453 -0.00337146 0 0.0123323 -0.0100514 0 -0.0138571 0.00798004 0 0.0139177
0.00802694 0 0.00639053 -0.0147581 0 -0.00637208 -0.0147727 0 -0.00451419 0.0154432
0 0.0045263 0.0154521 0 -0.00319452 0.0157843 0 0.00320133 0.0157893 0
-0.0154877 0.00462288 0 0.0155453 0.00466776 0 -0.0154877 -0.00540874 0 -0.0138571
-0.00884348 0 0.0155453 -0.00536322 0 0.0139177 -0.00879545 0 -0.0138571 0.00894019
0 -0.002 0.0164411 0 0.002 0.0164411 0 0.0139177 0.00898702 0
-0.0154877 0.00590709 0 -0.005 -0.0158596 0 0.005 -0.0158596 0 0.0155453
0.00595189 0 -0.00451419 0.0160757 0 -0.000726854 0.0166828 0 0.000726854 0.0166828
0 0.0045263 0.0160846 0 -0.00319452 0.016524 0 0.00320133 0.016529 0
-0.00345386 -0.0165523 0 0.00345386 -0.0165523 0 -0.0138571 0.0098326 0 -0.00597213
0.0159359 0 0.00598764 0.0159474 0 -0.0154877 0.00710071 0 0.0139177 0.00987937
0 -0.00176404 -0.0169864 0 0.00176404 -0.0169864 0 0.0155453 0.00714543 0
-2.76391e-19 -0.0171343 0 -0.0171658 -0.000247278 0 0.0172162 -0.000207752 0 -0.0171658
0.00147028 0 -0.0154877 -0.0075518 0 0.0155453 -0.00750615 0 0.0172162 0.00150971
0 -0.0171658 -0.00209519 0 0.0172162 -0.00205556 0 0.0107879 -0.0135925 0
-0.0107333 -0.0136359 0 -0.00451419 0.0167597 0 0.0045263 0.0167686 0 -0.002
0.0173062 0 0.002 0.0173062 0 -0.0171658 0.00306667 0 -0.0122727 -0.0124125
0 0.00928347 -0.0147881 0 0.0123323 -0.0123652 0 -0.00923755 -0.0148246 0
0.0172162 0.00310601 0 -0.0154877 0.00821012 0 -0.00597213 0.0165208 0 0.00598764
0.0165323 0 0.0155453 0.00825477 0 -0.00319452 0.017324 0 0.00320133 0.017329
0 -0.0171658 -0.00408336 0 -0.000723266 0.0176555 0 0.000723266 0.0176555 0
0.0172162 -0.00404362 0 -0.0171658 0.00455044 0 0.00781802 -0.0159527 0 -0.00778421
-0.0159796 0 -0.0138571 -0.0111534 0 0.0139177 -0.0111052 0 0.0172162 0.0045897
0 -0.0154877 0.00924127 0 -0.00451419 0.0174994 0 0.0045263 0.0175084 0
0.0155453 0.00928585 0 -0.0171658 0.00592954 0 -0.00597213 0.0171533 0 0.00598764
0.0171648 0 0.0172162 0.00596872 0 0.00639053 -0.0170872 0 -0.00637208 -0.0171018
0 -0.0171658 -0.00622243 0 0.0172162 -0.00618257 0 -0.002 0.0182418 0
0.002 0.0182418 0 -0.0154877 -0.00985753 0 0.0155453 -0.00981172 0 -0.00319452
0.0181891 0 0.00320133 0.0181941 0 -0.0154877 0.0101997 0 0.0155453 0.0102442
0 -0.0171658 0.00721136 0 0.0172162 0.00725047 0 -0.000719385 0.0187075 0
0.000719385 0.0187075 0 -0.00758282 0.0171264 0 0.00759938 0.0171387 0 -0.00597213
0.0178373 0 0.00598764 0.0178488 0 -0.00451419 0.0182994 0 0.0045263 0.0183083
0 -0.005 -0.0181922 0 0.005 -0.0181922 0 -0.018893 -0.00073496 0
-0.018893 0.0011094 0 0.0189314 -0.000704684 0 0.0189314 0.0011396 0 -0.0154877
0.0110905 0 -0.018893 -0.0027193 0 -0.018893 0.00282365 0 -0.0171658 0.00840275
0 0.0189314 -0.00268894 0 0.0155453 0.0111349 0 0.0189314 0.00285377 0
-0.00344538 -0.0188361 0 0.00344538 -0.0188361 0 -0.0171658 -0.00852385 0 0.0172162
0.00844179 0 0.0172162 -0.00848386 0 -0.00758282 0.0177113 0 0.00759938 0.0177235
0 -0.0122727 -0.0149021 0 0.0123323 -0.0148546 0 -0.00175719 -0.0192397 0
[...]
CELL_DATA 15677
FIELD attributes 1
U 3 15677 float
-0.304881 10.2651 0 0.190485 10.9192 0 -0.101144 9.44645 0 0.0315668 10.9901
0 0.118864 10.7321 0 -0.0119214 8.75783 0 0.0455421 11.0075 0
0.0145159 10.9813 0 0.0577322 10.4714 0 0.0115383 8.2285 0 0.0467147
11.0122 0 0.0434295 11.0309 0 0.0261272 10.9281 0 0.0319276 10.1899
0 0.0113313 7.85499 0 0.0440363 11.0135 0 0.0424649 11.0437 0
0.0428592 11.0204 0 0.0332774 10.8595 0 0.021392 9.90174 0 0.00645022
7.61052 0 0.0414057 11.0135 0 0.0405203 11.0461 0 0.0402814 11.0444
0 0.0399552 11.0041 0 0.0328664 10.768 0 0.0159741 9.63608 0
0.00251519 7.45705 0 0.0386713 11.0131 0 0.0390804 11.0452 0 0.0394812
11.0528 0 0.0385899 11.0438 0 0.0359169 10.9815 0 0.0288997 10.6556
0 0.0121839 9.41066 0 0.000573956 7.36027 0 0.0356531 11.0123 0
0.0374888 11.0433 0 0.0388418 11.0555 0 0.0385653 11.0579 0 0.0361469
11.041 0 0.0319106 10.9513 0 0.0241221 10.5308 0 0.009045 9.23539
0 2.70915e-05 7.29784 0 0.032379 11.0113 0 0.0356027 11.0409 0
0.0377852 11.0553 0 0.0380363 11.0632 0 0.0362461 11.0622 0 0.0330146
11.0349 0 0.0284891 10.9156 0 0.0195329 10.396 0 0.00648712 9.10436
0 -0.000224602 7.25497 0 0.0289121 11.0101 0 0.0335002 11.038 0
0.0364237 11.0535 0 0.037128 11.0645 0 0.035722 11.0706 0 0.0330944
11.0648 0 0.0299197 11.0271 0 0.0254849 10.8737 0 0.0155104 10.267
0 0.00443741 9.00921 0 -0.000452615 7.23013 0 0.0253345 11.0089 0
0.0312041 11.0347 0 0.0348082 11.0509 0 0.0359524 11.0636 0 0.0348534
11.0735 0 0.032579 11.0769 0 0.0299098 11.0669 0 0.0269342 11.0191
0 0.022283 10.8281 0 0.0118962 10.1566 0 0.00270289 8.94296 0
-0.000656483 7.2182 0 0.0216041 11.0077 0 0.0287149 11.0311 0 0.0329316
11.0477 0 0.0345178 11.0615 0 0.0337017 11.0735 0 0.0316766 11.0818
0 0.0292882 11.0835 0 0.0267667 11.0702 0 0.0236523 11.0119 0
0.0185967 10.7818 0 0.00851202 10.0675 0 0.0011414 8.90054 0 -0.0010678
7.21979 0 0.0179175 11.0065 0 0.0261739 11.0272 0 0.0307785 11.0438
0 0.032809 11.0584 0 0.0322717 11.0719 0 0.0304424 11.0829 0
0.0282003 11.0905 0 0.0258859 11.0916 0 0.0232887 11.0759 0 0.0199769
11.0061 0 0.0144897 10.7379 0 0.00521622 10.002 0 -0.000485578 8.87912
0 -0.00168306 7.23461 0 0.0147284 11.0053 0 0.0235352 11.0232 0
0.0283855 11.0394 0 0.0308089 11.0546 0 0.0305551 11.0692 0 0.0288929
11.082 0 0.0267173 11.0929 0 0.0244404 11.1011 0 0.0220034 11.1025
0 0.0192803 11.0846 0 0.0158033 11.003 0 0.0100318 10.7017 0
0.00176356 9.95906 0 -0.00215318 8.87674 0 -0.00234675 7.26302 0 0.0121602
11.0043 0 0.0210449 11.0195 0 0.0257724 11.0347 0 0.0285055 11.05
0 0.0285364 11.0655 0 0.0270241 11.0796 0 0.0248654 11.0927 0
0.0225231 11.1048 0 0.0200434 11.1144 0 0.0174219 11.1168 0 0.0145571
11.0972 0 0.0109278 11.0042 0 0.00516482 10.6762 0 -0.00180656 9.93789
0 -0.00403321 8.89262 0 -0.00316751 7.30517 0 0.0100205 11.0034 0
0.0188258 11.0163 0 0.0232397 11.0302 0 0.0259026 11.0449 0 0.0261964
11.0609 0 0.0248199 11.0762 0 0.022643 11.0908 0 0.0201636 11.1053
0 0.0175168 11.1195 0 0.0147722 11.1313 0 0.0119531 11.1354 0
0.00893429 11.1147 0 0.00525719 11.0115 0 -0.000172518 10.664 0 -0.00565339
9.9374 0 -0.00611141 8.92575 0 -0.00407906 7.36124 0 0.00838973 11.0026
0 0.0168799 11.0134 0 0.0209576 11.0262 0 0.0233027 11.0399 0
0.0235254 11.0555 0 0.0222599 11.0716 0 0.0200351 11.0875 0 0.0173605
11.1038 0 0.0144519 11.1207 0 0.0114376 11.1377 0 0.00841421 11.1526
0 0.0053955 11.1592 0 0.00230134 11.1381 0 -0.00124278 11.0264 0
-0.00601033 10.6664 0 -0.00982198 9.95667 0 -0.00839988 8.97606 0 -0.00507318
7.43104 0 0.00701613 11.0021 0 0.0149815 11.0111 0 0.0188302 11.0227
0 0.0209046 11.0355 0 0.0208176 11.0501 0 0.0193303 11.0661 0
0.0170228 11.083 0 0.0141001 11.1006 0 0.0108445 11.1194 0 0.00744257
11.1396 0 0.00404202 11.1603 0 0.000740231 11.1791 0 -0.00240591 11.189
0 -0.00542832 11.1685 0 -0.00859558 11.0507 0 -0.0123883 10.6845 0
-0.0143465 9.99475 0 -0.010884 9.04277 0 -0.00613418 7.51439 0 0.00589826
11.0017 0 0.0133426 11.0092 0 0.0168748 11.0197 0 0.0186389 11.0314
0 0.0182898 11.0451 0 0.01635 11.0604 0 0.0135937 11.0774 0
0.0103673 11.0961 0 0.00668044 11.1163 0 0.00277833 11.1385 0 -0.00114173
11.1627 0 -0.0049274 11.188 0 -0.00844049 11.2117 0 -0.0115743 11.2258
0 -0.0143088 11.207 0 -0.01683 11.0857 0 -0.0193216 10.7186 0
-0.0192248 10.051 0 -0.0135564 9.12543 0 -0.00724399 7.61058 0 0.00498236
11.0014 0 0.0118563 11.0077 0 0.0150753 11.0171 0 0.0165305 11.0278
0 0.0158939 11.0405 0 0.0135638 11.0549 0 0.0101199 11.0713 0
0.00615564 11.0901 0 0.00194731 11.1116 0 -0.00257268 11.1353 0 -0.00715355
11.1618 0 -0.0115909 11.191 0 -0.0156927 11.2218 0 -0.0192722 11.251
0 -0.022188 11.2703 0 -0.024382 11.2545 0 -0.0259482 11.1322 0
-0.0267957 10.7691 0 -0.0244358 10.1245 0 -0.0163927 9.22323 0 -0.0084054
7.719 0 0.0042571 11.0011 0 0.0105248 11.0064 0 0.0134377 11.0149
0 0.0145683 11.0246 0 0.0136515 11.0363 0 0.0109293 11.0497 0
0.00688557 11.0653 0 0.00192319 11.0835 0 -0.00335219 11.1052 0 -0.00862135
11.1302 0 -0.0140173 11.1584 0 -0.0192787 11.1901 0 -0.0241629 11.2251
0 -0.0284308 11.2622 0 -0.0318644 11.298 0 -0.0343035 11.3233 0
-0.0356523 11.3117 0 -0.035921 11.191 0 -0.0347843 10.8357 0 -0.0299605
10.2145 0 -0.0193785 9.33546 0 -0.00959584 7.83889 0 0.00370172 11.0009
0 0.00938489 11.0055 0 0.011949 11.013 0 0.012769 11.0218 0
0.0115709 11.0324 0 0.00847259 11.0448 0 0.00384376 11.0594 0 -0.00199006
11.0769 0 -0.00863752 11.0979 0 -0.0153547 11.1231 0 -0.0217442 11.1527
0 -0.0280245 11.1862 0 -0.0338965 11.2241 0 -0.0390715 11.2658 0
-0.0432799 11.3101 0 -0.0462916 11.3533 0 -0.0479333 11.3854 0 -0.0480852
11.3793 0 -0.0466878 11.2624 0 -0.0432455 10.9179 0 -0.0357597 10.32
0 -0.0224724 9.46104 0 -0.0107853 7.96905 0 0.00327172 11.0008 0
0.00845164 11.0047 0 0.0106572 11.0114 0 0.0111275 11.0193 0 0.0096641
11.0289 0 0.00621199 11.0403 0 0.00102859 11.0538 0 -0.00564296 11.0702
0 -0.0134916 11.0903 0 -0.02203 11.1149 0 -0.0303102 11.1447 0
-0.0378421 11.1798 0 -0.0449411 11.2197 0 -0.0512621 11.2645 0 -0.0564863
11.3139 0 -0.060335 11.3662 0 -0.062576 11.4174 0 -0.0630423 11.4572
0 -0.0616095 11.4575 0 -0.058169 11.3466 0 -0.0521146 11.015 0
-0.0417608 10.4395 0 -0.0256245 9.5987 0 -0.0119603 8.10824 0 0.00293278
11.0007 0 0.00768867 11.0042 0 0.00958866 11.0102 0 0.0097054 11.0172
0 0.00793473 11.0258 0 0.00416113 11.0361 0 -0.00153369 11.0485 0
-0.00899286 11.0637 0 -0.0179902 11.0826 0 -0.0281272 11.1062 0 -0.0387658
11.1352 0 -0.0486962 11.1706 0 -0.0573158 11.2122 0 -0.0650695 11.2594
0 -0.0715819 11.3122 0 -0.0765268 11.37 0 -0.079632 11.431 0
-0.0806869 11.4909 0 -0.0795494 11.5389 0 -0.0761133 11.5465 0 -0.0702453
11.4432 0 -0.0612837 11.126 0 -0.047906 10.572 0 -0.0287975 9.7471
0 -0.0131101 8.25512 0 0.00266136 11.0006 0 0.00706058 11.0037 0
0.00870588 11.0092 0 0.00853615 11.0155 0 0.0064515 11.023 0 0.00232885
11.0322 0 -0.00382405 11.0434 0 -0.0120054 11.0573 0 -0.0220806 11.0749
0 -0.033745 11.0972 0 -0.0464584 11.1251 0 -0.0593807 11.1595 0
-0.0709751 11.2016 0 -0.080523 11.2507 0 -0.0886596 11.3062 0 -0.0950053
11.3677 0 -0.0992464 11.4346 0 -0.101144 11.5049 0 -0.100533 11.5739
0 -0.0973263 11.6307 0 -0.0914658 11.6462 0 -0.0827939 11.5517 0
-0.0706456 11.2497 0 -0.0541232 10.7161 0 -0.0319556 9.90478 0 -0.0142138
8.40832 0 0.00244102 11.0005 0 0.00653977 11.0034 0 0.00797174 11.0084
0 0.00757893 11.0141 0 0.00524882 11.0207 0 0.000789301 11.0287 0
-0.00582875 11.0386 0 -0.0146544 11.0511 0 -0.0257186 11.0672 0 -0.0388181
11.0879 0 -0.0535164 11.1143 0 -0.0690765 11.1475 0 -0.0844009 11.1885
0 -0.0975685 11.2382 0 -0.107765 11.296 0 -0.115896 11.3606 0
-0.121605 11.4317 0 -0.124621 11.5083 0 -0.124772 11.5882 0 -0.121975
11.6667 0 -0.116213 11.7323 0 -0.107487 11.7562 0 -0.0956746 11.6713
0 -0.0801132 11.3847 0 -0.0603326 10.8701 0 -0.0350601 10.0702 0
-0.01526 8.56637 0 0.00226002 11.0005 0 0.00610499 11.0031 0 0.00735749
11.0077 0 0.00679181 11.0129 0 0.00428122 11.0188 0 -0.000427355 11.0258
0 -0.00746597 11.0342 0 -0.0169207 11.0452 0 -0.0288693 11.0597 0
-0.0432897 11.0786 0 -0.0598581 11.1032 0 -0.0779487 11.1347 0 -0.0965688
11.1743 0 -0.114314 11.2228 0 -0.128836 11.2813 0 -0.139267 11.3487
0 -0.146879 11.4233 0 -0.151372 11.5045 0 -0.152558 11.5912 0
-0.150366 11.6811 0 -0.144816 11.769 0 -0.135998 11.8435 0 -0.123992
11.876 0 -0.108724 11.8011 0 -0.089573 11.5297 0 -0.0664599 11.0326
0 -0.0380782 10.2418 0 -0.0162509 8.72788 0 0.00210981 11.0004 0
0.00573971 11.0028 0 0.00684058 11.0072 0 0.00614178 11.0119 0 0.00350179
11.0172 0 -0.00137627 11.0233 0 -0.00871283 11.0305 0 -0.0187119 11.0397
0 -0.0315062 11.0523 0 -0.0471138 11.0693 0 -0.0654112 11.0918 0
-0.0858954 11.1213 0 -0.107689 11.1589 0 -0.129487 11.206 0 -0.149545
11.2632 0 -0.165062 11.3316 0 -0.175173 11.4094 0 -0.181618 11.4946
0 -0.184204 11.5865 0 -0.182871 11.6836 0 -0.177689 11.7833 0
-0.168814 11.8806 0 -0.156447 11.9638 0 -0.140782 12.0046 0 -0.12179
11.9399 0 -0.0989137 11.6832 0 -0.0724431 11.2018 0 -0.0409895 10.418
0 -0.0171022 8.89175 0 0.00198401 11.0004 0 0.00543094 11.0026 0
0.00640318 11.0067 0 0.00560263 11.0111 0 0.0028729 11.0159 0 -0.00211297
11.0212 0 -0.00964062 11.0273 0 -0.0200157 11.035 0 -0.0335223 11.0454
0 -0.0502544 11.0601 0 -0.0701154 11.0803 0 -0.0928244 11.1074 0
-0.117635 11.1427 0 -0.143354 11.1876 0 -0.168323 11.2432 0 -0.190444
11.3103 0 -0.206433 11.3895 0 -0.215501 11.4787 0 -0.219998 11.5751
0 -0.219895 11.6778 0 -0.215305 11.7852 0 -0.206467 11.8947 0
-0.193694 12.001 0 -0.177321 12.0924 0 -0.157653 12.1414 0 -0.134729
12.0864 0 -0.108036 11.8436 0 -0.0782387 11.3762 0 -0.0437259 10.5975
0 -0.0184044 9.05519 0 0.00187784 11.0004 0 0.00516842 11.0025 0
0.00603114 11.0063 0 0.00515356 11.0104 0 0.00236446 11.0147 0 -0.00268212
11.0193 0 -0.0103189 11.0245 0 -0.0209269 11.0309 0 -0.0349191 11.0393
0 -0.0525839 11.0514 0 -0.073922 11.0688 0 -0.098657 11.0932 0
-0.126288 11.1257 0 -0.155754 11.168 0 -0.185501 11.2213 0 -0.213492
11.2867 0 -0.237239 11.3647 0 -0.252992 11.4557 0 -0.260148 11.5568
0 -0.261811 11.6647 0 -0.258171 11.7784 0 -0.24955 11.8961 0
-0.236387 12.0149 0 -0.219166 12.1296 0 -0.198368 12.2286 0 -0.17441
12.2851 0 -0.147401 12.2394 0 -0.116868 12.0093 0 -0.083776 11.5544
0 -0.0469147 10.7782 0 -0.0196223 9.24774 0 0.00178759 11.0003 0
0.00494403 11.0023 0 0.00571315 11.006 0 0.00477797 11.0098 0 0.00195249
11.0137 0 -0.00311946 11.0178 0 -0.0108035 11.0221 0 -0.0215351 11.0273
0 -0.0358229 11.034 0 -0.0541207 11.0437 0 -0.0766757 11.0579 0
-0.103328 11.0788 0 -0.133548 11.1082 0 -0.166542 11.1473 0 -0.200883
11.1977 0 -0.234616 11.2607 0 -0.265276 11.3371 0 -0.290027 11.4269
0 -0.304664 11.5305 0 -0.308906 11.644 0 -0.306757 11.7637 0
-0.298679 11.8881 0 -0.285238 12.0156 0 -0.267096 12.1431 0 -0.244924
12.2655 0 -0.219339 12.3715 0 -0.190865 12.4346 0 -0.159695 12.3973
0 -0.125317 12.179 0 -0.0894363 11.7344 0 -0.0497199 10.9801 0
-0.0199403 9.44559 0 0.00171036 11.0003 0 0.00475127 11.0022 0 0.00544008
11.0057 0 0.00446258 11.0092 0 0.00161786 11.0129 0 -0.00345339 11.0164
0 -0.0111391 11.02 0 -0.0219122 11.0241 0 -0.0363503 11.0294 0
-0.0550317 11.0369 0 -0.0784141 11.0481 0 -0.106645 11.0651 0 -0.139327
11.0904 0 -0.175585 11.1259 0 -0.214283 11.1728 0 -0.253574 11.2326
0 -0.291044 11.3065 0 -0.323826 11.3949 0 -0.348765 11.4975 0
-0.361243 11.6142 0 -0.361443 11.7405 0 -0.354431 11.8717 0 -0.340988
12.0066 0 -0.321955 12.1433 0 -0.29823 12.2788 0 -0.270661 12.408
0 -0.239994 12.5198 0 -0.206863 12.5888 0 -0.171488 12.5591 0
-0.133587 12.3508 0 -0.0948128 11.9356 0 -0.0515443 11.2016 0 -0.020336
9.63902 0 0.00164379 11.0003 0 0.00458494 11.0021 0 0.00520517 11.0055
0 0.00419668 11.0088 0 0.00134535 11.0121 0 -0.00370649 11.0152 0
-0.011361 11.0182 0 -0.0221153 11.0214 0 -0.0365949 11.0253 0 -0.0554689
11.0308 0 -0.0793554 11.0394 0 -0.108667 11.0527 0 -0.143384 11.0733
0 -0.182769 11.104 0 -0.225534 11.1468 0 -0.270137 11.2027 0
-0.314247 11.2732 0 -0.354998 11.3592 0 -0.389147 11.4606 0 -0.413257
11.5768 0 -0.422371 11.7071 0 -0.417307 11.8461 0 -0.404346 11.9886
0 -0.384622 12.1333 0 -0.35927 12.2784 0 -0.329419 12.4209 0
-0.296085 12.5559 0 -0.26013 12.6726 0 -0.222244 12.7464 0 -0.182848
12.723 0 -0.141872 12.5434 0 -0.0995885 12.1571 0 -0.0535404 11.4191
0 -0.0207594 9.82595 0 0.00158671 11.0003 0 0.00444056 11.002 0
0.00500258 11.0053 0 0.00397171 11.0084 0 0.00112281 11.0115 0 -0.00389659
11.0142 0 -0.0114967 11.0167 0 -0.0221892 11.019 0 -0.0366308 11.0217
0 -0.0555544 11.0256 0 -0.0796968 11.0316 0 -0.109675 11.0416 0
-0.145799 11.0577 0 -0.187789 11.0827 0 -0.234487 11.12 0 -0.284093
11.1713 0 -0.334601 11.2377 0 -0.383188 11.3202 0 -0.42654 11.4194
0 -0.461066 11.5348 0 -0.483142 11.6651 0 -0.487563 11.8091 0
-0.475954 11.9606 0 -0.455954 12.1139 0 -0.429076 12.2676 0 -0.396745
12.4201 0 -0.360307 12.5685 0 -0.320929 12.7082 0 -0.279541 12.8288
0 -0.236963 12.906 0 -0.194471 12.9069 0 -0.149727 12.7558 0
-0.104152 12.3754 0 -0.0554576 11.6303 0 -0.0211108 10.005 0 0.00431463
11.002 0 0.00151701 11.0003 0 0.00482567 11.0051 0 0.00378087 11.0081
0 0.000940718 11.0109 0 -0.00403779 11.0133 0 -0.0115682 11.0153 0
-0.0221692 11.0169 0 -0.0365159 11.0186 0 -0.0553841 11.0209 0 -0.079596
11.0248 0 -0.109922 11.0318 0 -0.14693 11.0437 0 -0.190744 11.0633
0 -0.24075 11.0938 0 -0.295249 11.1388 0 -0.351843 11.2002 0
-0.408046 11.2783 0 -0.460524 11.3741 0 -0.505541 11.4876 0 -0.539236
11.6177 0 -0.557911 11.7624 0 -0.556215 11.9201 0 -0.536762 12.0836
0 -0.508669 12.2468 0 -0.473832 12.4086 0 -0.43395 12.5674 0
-0.390563 12.7206 0 -0.344942 12.8639 0 -0.298097 12.9868 0 -0.252229
13.0852 0 -0.205832 13.1098 0 -0.156875 12.9656 0 -0.108282 12.5882
0 -0.0570949 11.8335 0 -0.0213719 10.1757 0 0.00466853 11.0049 0
0.00416547 11.0019 0 0.00143183 11.0002 0 0.00361756 11.0078 0 0.000791471
11.0104 0 -0.00414089 11.0126 0 -0.0115922 11.0141 0 -0.0220822 11.0151
0 -0.036295 11.0158 0 -0.0550332 11.0168 0 -0.0791776 11.0188 0
-0.109612 11.0231 0 -0.147098 11.0313 0 -0.192081 11.0458 0 -0.244438
11.0698 0 -0.303104 11.107 0 -0.365722 11.1611 0 -0.429245 11.2339
0 -0.490677 11.3253 0 -0.546188 11.4356 0 -0.591686 11.5643 0
-0.623145 11.7096 0 -0.636918 11.8688 0 -0.627628 12.0398 0 -0.599053
12.2146 0 -0.561882 12.3868 0 -0.518376 12.5555 0 -0.470482 12.7193
0 -0.419877 12.8762 0 -0.367918 13.0215 0 -0.31749 13.1643 0
-0.26743 13.283 0 -0.216058 13.3105 0 -0.163266 13.1704 0 -0.111819
12.7936 0 -0.058442 12.0279 0 -0.0215357 10.3377 0 0.00347252 11.0075
0 0.00449419 11.0047 0 0.003975 11.0018 0 0.00135023 11.0002 4.26825e-19
0.00066766 11.01 0 -0.00421415 11.0119 0 -0.0115816 11.013 0 -0.0219494
11.0135 0 -0.0360029 11.0134 0 -0.0545598 11.0132 0 -0.0785388 11.0135
0 -0.108903 11.0153 0 -0.14656 11.0202 0 -0.192204 11.0302 0
-0.246104 11.0482 0 -0.307779 11.0776 0 -0.3756 11.1227 0 -0.446466
11.1875 0 -0.516595 11.2733 0 -0.582504 11.3792 0 -0.639916 11.5051
0 -0.684476 11.6497 0 -0.712121 11.8106 0 -0.7194 11.9841 0
-0.701034 12.1677 0 -0.662122 12.3528 0 -0.614987 12.5328 0 -0.562223
12.7072 0 -0.505961 12.8749 0 -0.447979 13.0339 0 -0.392049 13.1986
0 -0.337049 13.3603 0 -0.281077 13.4786 0 -0.22519 13.5067 0
-0.16879 13.3686 0 -0.114786 12.9907 0 -0.0595174 12.2129 0 -0.0216056
10.4906 0 0.000555253 11.0096 0 0.00332979 11.0072 0 0.00428688 11.0045
1.86859e-18 0.00378922 11.0017 -1.35133e-18 0.00127163 11.0002 -8.6623e-19 -0.0042654 11.0113 0
-0.0115455 11.0121 0 -0.021786 11.0121 0 -0.0356659 11.0113 0 -0.0540081
11.01 0 -0.0777544 11.0088 0 -0.107921 11.0085 0 -0.145522 11.0104
0 -0.191438 11.0163 0 -0.246248 11.0288 0 -0.309945 11.0511 0
-0.381588 11.0872 0 -0.458895 11.1416 0 -0.537877 11.2186 0 -0.613996
11.3189 0 -0.683333 11.4407 0 -0.741244 11.5832 0 -0.783235 11.7442
0 -0.805356 11.9205 0 -0.804504 12.1079 0 -0.775621 12.3033 0
-0.725258 12.4975 0 -0.667404 12.684 0 -0.604915 12.8628 0 -0.540054
13.0328 0 -0.4776 13.2112 0 -0.4166 13.3944 0 -0.354653 13.5542
0 -0.293251 13.6701 0 -0.23314 13.6967 0 -0.173473 13.559 0
-0.117229 13.1789 0 -0.0603472 12.3881 0 -0.021594 10.6342 0 -0.00431595
11.0107 0 0.000482602 11.0091 -3.78336e-18 0.00317218 11.0068 -1.96747e-18 0.00408656 11.0042
9.48578e-19 0.0036073 11.0016 -9.13824e-19 0.00119613 11.0002 0 -0.011492 11.0113 0
-0.0216026 11.0108 0 -0.0353033 11.0094 0 -0.0534119 11.0072 0 -0.0768814
11.0047 0 -0.106762 11.0025 0 -0.144142 11.0017 0 -0.190041 11.0039
0 -0.245274 11.0115 0 -0.310214 11.0272 0 -0.384489 11.0549 0
-0.466611 11.099 0 -0.553491 11.1643 0 -0.640167 11.2552 0 -0.721347
11.3715 0 -0.792761 11.5103 0 -0.849517 11.6701 0 -0.887127 11.8478
0 -0.901924 12.0393 0 -0.891311 12.2398 0 -0.850556 12.4458 0
-0.78777 12.6478 0 -0.718589 12.8395 0 -0.646046 13.0209 0 -0.576105
13.2106 0 -0.507931 13.4074 0 -0.438773 13.5882 0 -0.370368 13.7442
0 -0.303895 13.8558 0 -0.239929 13.8796 0 -0.177375 13.7412 0
-0.119194 13.3577 0 -0.0609619 12.5535 0 -0.0215154 10.7688 0 -0.0114528
11.0106 0 -0.00427271 11.0101 7.96343e-18 0.000446384 11.0086 0 0.00302164 11.0064
1.99613e-18 0.00389213 11.004 5.46297e-22 0.00342848 11.0015 0 0.00112373 11.0002 0
-0.0214077 11.0097 0 -0.0349274 11.0078 0 -0.0527957 11.0048 0 -0.0759632
11.001 0 -0.1055 10.9971 0 -0.142544 10.994 0 -0.188213 10.9929
0 -0.243503 10.996 0 -0.309084 11.0058 0 -0.385043 11.0258 0
-0.47056 11.0601 0 -0.563449 11.1137 0 -0.659716 11.1916 0 -0.753348
11.298 0 -0.838331 11.4317 0 -0.910181 11.5886 0 -0.963901 11.7662
0 -0.995186 11.9604 0 -1.00082 12.1666 0 -0.978866 12.3791 0
-0.925014 12.5944 0 -0.849002 12.8028 0 -0.768045 12.9978 0 -0.689684
13.1993 0 -0.613199 13.4076 0 -0.535429 13.6017 0 -0.458596 13.7781
0 -0.384168 13.9285 0 -0.313034 14.0347 0 -0.245636 14.0548 0
-0.180562 13.9145 0 -0.120733 13.5269 0 -0.0613919 12.7091 0 -0.0213824
10.8944 0 -0.0212475 11.0088 0 -0.0112441 11.0097 6.97556e-22 -0.00410693 11.0093
0 0.000412176 11.008 -2.10093e-18 0.0028799 11.006 3.75736e-22 0.00370465 11.0038 0
0.00325291 11.0014 0 0.00105443 11.0001 0 -0.0345468 11.0063 0 -0.052174
11.0026 0 -0.0750308 10.9978 0 -0.10419 10.9924 0 -0.14082 10.9872
0 -0.186111 10.9832 0 -0.241189 10.9823 0 -0.306953 10.9867 0
-0.383855 10.9996 0 -0.471625 11.025 0 -0.568851 11.0674 0 -0.672547
11.132 0 -0.777705 11.2242 0 -0.877211 11.3478 0 -0.964413 11.5002
0 -1.03479 11.6759 0 -1.08341 11.8715 0 -1.10635 12.082 0
-1.10101 12.3018 0 -1.06623 12.5251 0 -0.998209 12.7483 0 -0.908343
12.9611 0 -0.820682 13.1768 0 -0.734763 13.3973 0 -0.646962 13.6029
0 -0.560073 13.7924 0 -0.47606 13.9626 0 -0.396091 14.1063 0
-0.320768 14.2062 0 -0.250353 14.2217 0 -0.183106 14.0788 0 -0.121896
13.6864 0 -0.0616634 12.8549 0 -0.0212063 11.0114 0 -0.0342282 11.005
0 -0.0208132 11.0076 -4.40435e-18 -0.0107836 11.0087 0 -0.00394635 11.0086 0
0.000391011 11.0075 6.39101e-18 0.002747 11.0057 0 0.00352386 11.0036 0 0.00308074
11.0013 1.90414e-18 0.00098823 11.0001 0 -0.0515558 11.0007 0 -0.0741019 10.995
0 -0.102871 10.9883 0 -0.139043 10.9811 0 -0.183853 10.9746 0
-0.238527 10.97 0 -0.304133 10.9697 0 -0.381411 10.9762 0 -0.470535
10.9933 0 -0.570739 11.0253 0 -0.679916 11.0774 0 -0.794164 11.1549
0 -0.907381 11.2631 0 -1.01133 11.4053 0 -1.09884 11.5775 0
-1.16559 11.7726 0 -1.20693 11.986 0 -1.21948 12.212 0 -1.20142
12.4444 0 -1.15249 12.6771 0 -1.06941 12.9061 0 -0.971703 13.1406
0 -0.875241 13.376 0 -0.775932 13.594 0 -0.677298 13.7948 0
-0.581856 13.9777 0 -0.491218 14.1406 0 -0.406248 14.2769 0 -0.327213
14.3698 0 -0.254179 14.38 0 -0.185081 14.2338 0 -0.122733 13.8364
0 -0.0618017 12.9912 0 -0.0209973 11.1202 0 -0.0510356 10.999 0
-0.0334935 11.0036 0 -0.0199419 11.0064 -4.81352e-18 -0.0103406 11.0078 -4.64502e-18 -0.00376684
11.0079 -8.95923e-18 0.000383068 11.007 0 0.00262291 11.0053 -4.15972e-18 0.00334993 11.0034
-4.00634e-18 0.00291193 11.0012 1.92827e-18 0.000925169 11.0001 0 -0.0731858 10.9924 0
-0.101566 10.9846 0 -0.137261 10.9758 0 -0.181531 10.9669 0 -0.235667
10.9592 0 -0.300869 10.9545 0 -0.378097 10.9553 0 -0.467876 10.9649
0 -0.569976 10.9874 0 -0.683036 11.0276 0 -0.804135 11.091 0