#           x             T
    -0.118947       349.898
    -0.118121       349.894
    -0.117174       349.888
    -0.116087       349.883
     -0.11484       349.878
    -0.113408       349.875
    -0.111764       349.873
    -0.109877       349.871
    -0.107712       349.869
    -0.105227       349.868
    -0.102374       349.867
   -0.0990995       349.866
   -0.0953416       349.866
   -0.0914285       349.867
   -0.0876191       349.873
   -0.0838095       349.886
        -0.08       349.915
   -0.0761904       349.976
   -0.0723809       350.098
   -0.0685715        350.34
   -0.0649271       350.788
    -0.061624       351.544
    -0.058655        352.73
   -0.0559862       354.459
   -0.0535874       356.788
   -0.0514313       359.669
   -0.0494932       362.954
   -0.0477512       366.448
   -0.0461853       369.953
   -0.0447779       373.293
   -0.0435128       376.343
   -0.0423757       379.044
   -0.0413536       381.393
   -0.0404349       383.563
     -0.03925       386.009
     -0.03775       388.613
     -0.03625       390.892
     -0.03475       392.747
     -0.03325       394.233
     -0.03175       395.404
     -0.03025       396.302
     -0.02875       396.967
     -0.02725       397.424
     -0.02575       397.721
   -0.0243994       397.942
   -0.0231362        398.11
    -0.021743       398.175
   -0.0202065       398.025
   -0.0189203       397.925
   -0.0180315       397.873
   -0.0166427       397.808
   -0.0145812       397.712
    -0.012414       397.409
   -0.0110231       397.253
   -0.0100402       397.157
  -0.00847254       397.041
  -0.00677747       396.949
  -0.00524316       396.902
  -0.00385435       396.877
  -0.00288618       396.867
  -0.00228892        396.86
  -0.00133333       396.859
            0       396.864
   0.00133333       396.869
     0.002289        396.87
   0.00288966       396.873
   0.00386381       396.876
   0.00525697       396.881
   0.00679351       396.887
    0.0084882       396.895
    0.0100473       396.911
    0.0110276       396.926
    0.0124188       396.957
    0.0145859       397.028
    0.0166548       397.126
    0.0180384       397.207
    0.0189282       397.265
    0.0202225        397.36
    0.0217568       397.486
    0.0231456       397.608
    0.0244027       397.728
      0.02575       397.858
      0.02725       397.998
      0.02875       398.137
      0.03025       398.266
      0.03175       398.377
      0.03325       398.459
      0.03475       398.494
      0.03625       398.455
      0.03775       398.299
      0.03925        397.97
    0.0404349       397.489
    0.0413536       396.874
    0.0423757       395.942
    0.0435128       394.473
    0.0447779       392.199
    0.0461853       388.809
    0.0477511        384.09
    0.0494932        378.18
    0.0514312       371.707
    0.0535874       365.528
    0.0559862       360.297
    0.0586549       356.309
     0.061624       353.562
    0.0649271       351.841
    0.0685714       350.858
    0.0723809       350.348
    0.0761904         350.1
         0.08        349.98
    0.0838095       349.921
     0.087619       349.892
    0.0914285       349.878
    0.0953419       349.872
    0.0991002       349.869
     0.102374       349.868
     0.105227       349.869
     0.107713        349.87
     0.109878       349.871
     0.111765       349.872
     0.113408       349.874
      0.11484       349.877
     0.116088       349.881
     0.117175       349.887
     0.118122       349.893
     0.118947       349.898
     0.119665       349.901
