# vtk DataFile Version 2.0
sampleSurface
ASCII
DATASET POLYDATA
POINTS 15978 float
-4.26165e-19 0.000133477 0 -4.18079e-19 -0.000798814 0 -4.33681e-19 0.001 0 -4.09379e-19 -0.00180187
0 -0.00181681 0.000361473 0 0.00181681 0.000361473 0 -0.00181396 -0.000575145 0
0.00181396 -0.000575145 0 -0.00181945 0.00123202 0 0.00181945 0.00123202 0 -0.00181089
-0.00158285 0 0.00181089 -0.00158285 0 -4.00018e-19 -0.00288105 0 -0.00180759 -0.00266704
0 0.00180759 -0.00266704 0 -0.00351565 8.15481e-05 0 0.00351565 8.15481e-05 0
-0.00351186 -0.000939823 0 0.00351186 -0.000939823 0 -0.00351918 0.00103087 0 0.00351918
0.00103087 0 -0.00352245 0.00191322 0 0.00352245 0.00191322 0 -3.89947e-19 -0.00404214
0 -0.00350777 -0.00203871 0 0.00350777 -0.00203871 0 -0.00180405 -0.00383352 0
0.00180405 -0.00383352 0 -0.00350338 -0.00322101 0 0.00350338 -0.00322101 0 -0.005
8.60602e-05 0 0.005 8.60602e-05 0 -0.005 -0.00103629 0 0.005 -0.00103629
0 -0.005 0.00112923 0 0.005 0.00112923 0 -3.79112e-19 -0.00529135 0
-0.00180023 -0.00508853 0 0.00180023 -0.00508853 0 -0.005 0.00209882 0 0.005
0.00209882 0 -0.005 -0.00224382 0 0.005 -0.00224382 0 -0.00349866 -0.00449304
0 0.00349866 -0.00449304 0 -0.005 0.003 0 0.005 0.003 0
-0.005 -0.003543 0 0.005 -0.003543 0 -0.00637208 2.82617e-05 0 0.00639053
4.25732e-05 0 -0.00637208 0.00114892 0 -0.00637208 -0.00117745 0 0.00639053 -0.00116311
0 0.00639053 0.00116321 0 -3.67455e-19 -0.00663538 0 -0.00179612 -0.00643879 0
0.00179612 -0.00643879 0 -0.00637208 0.00219052 0 0.00639053 0.00220479 0 -0.00349357
-0.00586162 0 0.00349357 -0.00586162 0 -0.00637208 -0.00247467 0 0.00639053 -0.00246031
0 -0.005 -0.00494079 0 0.005 -0.00494079 0 -0.00637208 0.00315864 0
0.00639053 0.00317289 0 -0.00637208 -0.00387036 0 0.00639053 -0.00385597 0 -0.00637208
0.00405846 0 0.00639053 0.00407269 0 -0.00778421 -7.99569e-05 0 0.00781802 -5.3679e-05
0 -0.00778421 0.00112388 0 0.00781802 0.00115011 0 -0.00778421 -0.00137517 0
0.00781802 -0.00134884 0 -3.54912e-19 -0.00808142 0 -0.0017917 -0.00789154 0 0.0017917
-0.00789154 0 -0.00778421 0.0022428 0 -0.0034881 -0.00733407 0 0.0034881 -0.00733407
0 0.00781802 0.00226899 0 -0.005 -0.00644467 0 0.005 -0.00644467 0
-0.00778421 -0.00276868 0 0.00781802 -0.0027423 0 -0.00637208 -0.00537197 0 0.00639053
-0.00535755 0 -0.00778421 0.00328278 0 0.00781802 0.00330893 0 -0.00778421 0.00424939
0 -0.00778421 -0.00426796 0 0.00781802 -0.00424152 0 0.00781802 0.00427551 0
-0.00923755 -0.000243565 0 0.00928347 -0.000207818 0 -0.00923755 0.00104957 0 -0.00778421
0.00514782 0 0.00928347 0.00108525 0 0.00781802 0.0051739 0 -0.00923755 -0.00163485
0 0.00928347 -0.00159903 0 -0.00637208 -0.00698755 0 0.00639053 -0.0069731 0
-0.005 -0.0080627 0 0.005 -0.0080627 0 -0.00923755 0.00225148 0 0.00928347
0.0022871 0 -0.00348222 -0.00891827 0 0.00348222 -0.00891827 0 -0.00178695 -0.00945455
0 0.00178695 -0.00945455 0 -3.41418e-19 -0.00963721 0 -0.00923755 -0.00313172 0
-0.00778421 -0.00588103 0 0.00781802 -0.00585453 0 0.00928347 -0.00309583 0 -0.00923755
0.0033686 0 0.00928347 0.00340416 0 -0.00923755 0.00440692 0 0.00928347 0.00444243
0 -0.00923755 -0.00474221 0 0.00928347 -0.00470623 0 -0.00923755 0.00537198 0
-0.0107333 -0.000467921 0 0.00928347 0.00540745 0 -0.0107333 0.000921062 0 0.0107879
-0.000425364 0 0.00639053 -0.00871127 0 -0.00637208 -0.00872575 0 0.0107879 0.000963535
0 -0.00778421 -0.00761653 0 0.00781802 -0.00758997 0 -0.0107333 -0.00196233 0
0.0107879 -0.00191968 0 -0.0107333 0.00221206 0 -0.005 -0.00980352 0 0.005
-0.00980352 0 0.0107879 0.00225445 0 -0.00923755 0.00626897 0 -0.00347589 -0.0106227
0 0.00347589 -0.0106227 0 0.00928347 0.00630439 0 -0.0107333 0.00341198 0
-0.00178183 -0.0111362 0 0.00178183 -0.0111362 0 -0.00923755 -0.00647493 0 0.00928347
-0.00643887 0 -3.26899e-19 -0.0113111 0 -0.0107333 -0.00357015 0 0.0107879 0.00345431
0 0.0107879 -0.00352741 0 -0.0107333 0.00452726 0 0.0107879 0.00456952 0
-0.0107333 -0.00530001 0 0.0107879 -0.00525717 0 -0.0107333 0.00556386 0 0.0107879
0.00560606 0 -0.000743369 0.0122055 0 0.000743369 0.0122055 0 -0.00778421 -0.00948375
0 0.00781802 -0.00945713 0 -0.0122727 0.000733061 0 -0.0122727 -0.000758799 0
0.0123323 -0.000712262 0 0.0123323 0.0007795 0 0.00639053 -0.0105814 0 -0.00637208
-0.0105959 0 -0.00923755 -0.00833916 0 -0.0122727 0.00211968 0 0.00928347 -0.00830301
0 -0.0122727 -0.00236389 0 0.0123323 0.00216603 0 0.0123323 -0.00231725 0
-0.0107333 0.00652734 0 0.0107879 0.00656947 0 -0.005 -0.0116765 0 0.005
-0.0116765 0 -0.0122727 0.00340848 0 0.0123323 0.00345474 0 -0.000741126 0.0128136
0 0.000741126 0.0128136 0 -0.0107333 -0.00716117 0 0.0107879 -0.00711821 0
-0.00346908 -0.0124565 0 0.00346908 -0.0124565 0 -0.0122727 -0.00409081 0 0.0123323
-0.00404405 0 -0.0107333 0.00742284 0 -0.00177633 -0.0129455 0 0.00177633 -0.0129455
0 -0.0122727 0.00460636 0 -3.11279e-19 -0.013112 0 0.0107879 0.00746492 0
-0.002 0.013 0 0.002 0.013 0 0.0123323 0.00465255 0 -0.0007387
0.0134712 0 0.0007387 0.0134712 0 -0.0122727 0.00571974 0 0.0123323 0.00576585
0 -0.0122727 -0.00594879 0 0.0123323 -0.00590191 0 -0.002 0.0135849 0
0.002 0.0135849 0 -0.0138571 0.000479853 0 -0.00923755 -0.0103449 0 0.00928347
-0.0103086 0 0.00781802 -0.011466 0 -0.00778421 -0.0114927 0 -0.0138571 -0.00112242
0 0.0139177 0.000527252 0 0.0139177 -0.00107491 0 -0.0138571 0.0019691 0
-0.0122727 0.00675458 0 0.0139177 0.00201639 0 0.0123323 0.00680062 0 -0.0107333
-0.00916358 0 0.00639053 -0.0125934 0 0.0107879 -0.0091205 0 -0.00637208 -0.012608
0 -0.0138571 -0.0028463 0 0.0139177 -0.00279868 0 -0.000736077 0.0141824 0
0.000736077 0.0141824 0 -0.00319452 0.0138829 0 0.00320133 0.0138879 0 -0.0138571
0.00335328 0 0.0139177 0.00340049 0 -0.002 0.0142174 0 0.002 0.0142174
0 -0.0122727 0.00771641 0 0.0123323 0.00776239 0 -0.005 -0.0136916 0
0.005 -0.0136916 0 -0.0138571 0.00463982 0 -0.0122727 -0.0079478 0 -0.0138571
-0.00470103 0 0.0123323 -0.00790078 0 0.0139177 -0.00465328 0 0.0139177 0.00468694
0 -0.00319452 0.0144678 0 0.00320133 0.0144728 0 -0.00346175 -0.0144295 0
0.00346175 -0.0144295 0 -0.00073324 0.0149515 0 0.00073324 0.0149515 0 -0.0122727
0.00861039 0 -0.00177041 -0.0148921 0 0.00177041 -0.0148921 0 -0.002 0.0149014
0 0.002 0.0149014 0 -0.0138571 0.0058356 0 -2.94473e-19 -0.0150496 0
0.0123323 0.00865631 0 0.0139177 0.00588264 0 -0.0138571 -0.00669653 0 0.0139177
-0.00664864 0 -0.00319452 0.0151003 0 0.00320133 0.0151053 0 -0.0154877 0.000155282
0 -0.0138571 0.00694702 0 -0.00451419 0.0148583 0 0.0045263 0.0148673 0
0.00928347 -0.0124665 0 -0.00923755 -0.0125028 0 0.0155453 0.000200444 0 -0.0154877
-0.00156548 0 0.0139177 0.00699399 0 -0.0154877 0.00175466 0 -0.0107333 -0.011318
0 0.0107879 -0.0112748 0 0.0155453 -0.00152021 0 0.0155453 0.00179972 0
0.00781802 -0.0136273 0 -0.00778421 -0.0136541 0 -0.002 0.0156411 0 0.002
0.0156411 0 -0.000730172 0.0157833 0 0.000730172 0.0157833 0 -0.0154877 0.0032412
0 -0.0154877 -0.00341685 0 0.0155453 0.00328617 0 -0.0122727 -0.0100985 0
0.0155453 -0.00337146 0 0.0123323 -0.0100514 0 -0.0138571 0.00798004 0 0.0139177
0.00802694 0 0.00639053 -0.0147581 0 -0.00637208 -0.0147727 0 -0.00451419 0.0154432
0 0.0045263 0.0154521 0 -0.00319452 0.0157843 0 0.00320133 0.0157893 0
-0.0154877 0.00462288 0 0.0155453 0.00466776 0 -0.0154877 -0.00540874 0 -0.0138571
-0.00884348 0 0.0155453 -0.00536322 0 0.0139177 -0.00879545 0 -0.0138571 0.00894019
0 -0.002 0.0164411 0 0.002 0.0164411 0 0.0139177 0.00898702 0
-0.0154877 0.00590709 0 -0.005 -0.0158596 0 0.005 -0.0158596 0 0.0155453
0.00595189 0 -0.00451419 0.0160757 0 -0.000726854 0.0166828 0 0.000726854 0.0166828
0 0.0045263 0.0160846 0 -0.00319452 0.016524 0 0.00320133 0.016529 0
-0.00345386 -0.0165523 0 0.00345386 -0.0165523 0 -0.0138571 0.0098326 0 -0.00597213
0.0159359 0 0.00598764 0.0159474 0 -0.0154877 0.00710071 0 0.0139177 0.00987937
0 -0.00176404 -0.0169864 0 0.00176404 -0.0169864 0 0.0155453 0.00714543 0
-2.76391e-19 -0.0171343 0 -0.0171658 -0.000247278 0 0.0172162 -0.000207752 0 -0.0171658
0.00147028 0 -0.0154877 -0.0075518 0 0.0155453 -0.00750615 0 0.0172162 0.00150971
0 -0.0171658 -0.00209519 0 0.0172162 -0.00205556 0 0.0107879 -0.0135925 0
-0.0107333 -0.0136359 0 -0.00451419 0.0167597 0 0.0045263 0.0167686 0 -0.002
0.0173062 0 0.002 0.0173062 0 -0.0171658 0.00306667 0 -0.0122727 -0.0124125
0 0.00928347 -0.0147881 0 0.0123323 -0.0123652 0 -0.00923755 -0.0148246 0
0.0172162 0.00310601 0 -0.0154877 0.00821012 0 -0.00597213 0.0165208 0 0.00598764
0.0165323 0 0.0155453 0.00825477 0 -0.00319452 0.017324 0 0.00320133 0.017329
0 -0.0171658 -0.00408336 0 -0.000723266 0.0176555 0 0.000723266 0.0176555 0
0.0172162 -0.00404362 0 -0.0171658 0.00455044 0 0.00781802 -0.0159527 0 -0.00778421
-0.0159796 0 -0.0138571 -0.0111534 0 0.0139177 -0.0111052 0 0.0172162 0.0045897
0 -0.0154877 0.00924127 0 -0.00451419 0.0174994 0 0.0045263 0.0175084 0
0.0155453 0.00928585 0 -0.0171658 0.00592954 0 -0.00597213 0.0171533 0 0.00598764
0.0171648 0 0.0172162 0.00596872 0 0.00639053 -0.0170872 0 -0.00637208 -0.0171018
0 -0.0171658 -0.00622243 0 0.0172162 -0.00618257 0 -0.002 0.0182418 0
0.002 0.0182418 0 -0.0154877 -0.00985753 0 0.0155453 -0.00981172 0 -0.00319452
0.0181891 0 0.00320133 0.0181941 0 -0.0154877 0.0101997 0 0.0155453 0.0102442
0 -0.0171658 0.00721136 0 0.0172162 0.00725047 0 -0.000719385 0.0187075 0
0.000719385 0.0187075 0 -0.00758282 0.0171264 0 0.00759938 0.0171387 0 -0.00597213
0.0178373 0 0.00598764 0.0178488 0 -0.00451419 0.0182994 0 0.0045263 0.0183083
0 -0.005 -0.0181922 0 0.005 -0.0181922 0 -0.018893 -0.00073496 0
-0.018893 0.0011094 0 0.0189314 -0.000704684 0 0.0189314 0.0011396 0 -0.0154877
0.0110905 0 -0.018893 -0.0027193 0 -0.018893 0.00282365 0 -0.0171658 0.00840275
0 0.0189314 -0.00268894 0 0.0155453 0.0111349 0 0.0189314 0.00285377 0
-0.00344538 -0.0188361 0 0.00344538 -0.0188361 0 -0.0171658 -0.00852385 0 0.0172162
0.00844179 0 0.0172162 -0.00848386 0 -0.00758282 0.0177113 0 0.00759938 0.0177235
0 -0.0122727 -0.0149021 0 0.0123323 -0.0148546 0 -0.00175719 -0.0192397 0
[...]
CELL_DATA 15677
FIELD attributes 1
U 3 15677 float
-0.304871 10.2652 0 0.190476 10.9192 0 -0.101144 9.44667 0 0.0315568 10.9901
0 0.118845 10.7323 0 -0.0119273 8.75836 0 0.045528 11.0075 0
0.014484 10.9815 0 0.0577133 10.4719 0 0.0115307 8.22934 0 0.0466953
11.0122 0 0.043391 11.0311 0 0.0260933 10.9286 0 0.0319079 10.1908
0 0.0113235 7.85612 0 0.0440124 11.0135 0 0.0424065 11.0439 0
0.0428085 11.0209 0 0.0332383 10.8603 0 0.0213714 9.90293 0 0.00644146
7.61194 0 0.0413776 11.0136 0 0.0404479 11.0462 0 0.0402103 11.0448
0 0.0398956 11.0049 0 0.0328246 10.7692 0 0.015953 9.6376 0
0.00250534 7.45876 0 0.038637 11.0131 0 0.0389911 11.0453 0 0.0393862
11.0533 0 0.0385057 11.0445 0 0.035853 10.9826 0 0.0288603 10.6571
0 0.0121638 9.41247 0 0.000563451 7.36225 0 0.0356118 11.0123 0
0.0373758 11.0435 0 0.038718 11.056 0 0.0384542 11.0587 0 0.0360563
11.0421 0 0.0318455 10.9528 0 0.0240822 10.5327 0 0.0090232 9.23747
0 1.69425e-05 7.30011 0 0.0323304 11.0113 0 0.0354662 11.0411 0
0.0376294 11.0557 0 0.0378945 11.064 0 0.036126 11.0634 0 0.032923
11.0364 0 0.0284255 10.9174 0 0.0194923 10.3981 0 0.00646175 9.10672
0 -0.000236881 7.25753 0 0.0288548 11.0101 0 0.0333356 11.0382 0
0.0362326 11.054 0 0.0369498 11.0652 0 0.0355682 11.0717 0 0.0329716
11.0663 0 0.0298281 11.0289 0 0.0254207 10.8759 0 0.0154668 10.2694
0 0.00440767 9.01186 0 -0.000467401 7.23305 0 0.0252627 11.0089 0
0.0310069 11.0348 0 0.0345764 11.0514 0 0.0357327 11.0644 0 0.0346602
11.0746 0 0.0324202 11.0784 0 0.0297859 11.0687 0 0.0268411 11.0213
0 0.0222152 10.8306 0 0.0118458 10.1593 0 0.00266733 8.94593 0
-0.000671208 7.2215 0 0.0215492 11.0077 0 0.0284856 11.0312 0 0.0326532
11.0481 0 0.0342506 11.0623 0 0.0334635 11.0747 0 0.0314766 11.0833
0 0.0291271 11.0853 0 0.0266404 11.0724 0 0.0235545 11.0144 0
0.0185205 10.7846 0 0.00845154 10.0705 0 0.00110185 8.90388 0 -0.00108686
7.22349 0 0.0178434 11.0065 0 0.0258775 11.0273 0 0.0304488 11.0442
0 0.0324876 11.0592 0 0.0319819 11.0731 0 0.0301951 11.0844 0
0.0279964 11.0924 0 0.0257208 11.0938 0 0.0231559 11.0784 0 0.0198689
11.009 0 0.0144008 10.741 0 0.00514356 10.0053 0 -0.000540383 8.8829
0 -0.00170729 7.23878 0 0.0146469 11.0053 0 0.0231929 11.0233 0
0.0279906 11.0398 0 0.0304259 11.0554 0 0.0302067 11.0703 0 0.0285916
11.0835 0 0.0264645 11.0948 0 0.024231 11.1033 0 0.0218298 11.105
0 0.0191345 11.0874 0 0.0156795 11.0062 0 0.00992593 10.7052 0
0.00167072 9.9628 0 -0.00221104 8.88099 0 -0.00237415 7.26771 0 0.0120668
11.0043 0 0.0206489 11.0196 0 0.0253137 11.0351 0 0.0280522 11.0508
0 0.0281217 11.0666 0 0.0266615 11.0811 0 0.0245569 11.0945 0
0.0222629 11.107 0 0.0198229 11.117 0 0.0172323 11.1196 0 0.0143916
11.1004 0 0.0107825 11.0078 0 0.00503921 10.6801 0 -0.00190999 9.94208
0 -0.00410037 8.8974 0 -0.0032003 7.31043 0 0.00991262 11.0034 0
0.0183841 11.0164 0 0.0227143 11.0306 0 0.0253718 11.0457 0 0.0257069
11.062 0 0.0243879 11.0776 0 0.0222711 11.0926 0 0.0198456 11.1075
0 0.0172428 11.122 0 0.0145322 11.1342 0 0.0117393 11.1386 0
0.0087422 11.1183 0 0.00508551 11.0154 0 -0.000322473 10.6683 0 -0.00577405
9.9421 0 -0.00618885 8.93112 0 -0.00411691 7.36714 0 0.00824377 11.0027
0 0.0163626 11.0136 0 0.0203651 11.0266 0 0.0226947 11.0407 0
0.0229519 11.0566 0 0.0217497 11.0731 0 0.0195913 11.0893 0 0.0169765
11.1059 0 0.0141167 11.1232 0 0.0111397 11.1406 0 0.00814458 11.1558
0 0.0051489 11.1628 0 0.00207399 11.1421 0 -0.00144679 11.0308 0
-0.00618794 10.6711 0 -0.009962 9.96193 0 -0.00848824 8.98207 0 -0.0051143
7.43761 0 0.00685967 11.0021 0 0.0144597 11.0112 0 0.0182037 11.0231
0 0.0202221 11.0362 0 0.0201597 11.0511 0 0.0187319 11.0675 0
0.0164977 11.0848 0 0.0136413 11.1027 0 0.0104395 11.1219 0 0.00707841
11.1424 0 0.0037083 11.1635 0 0.000430589 11.1827 0 -0.00269531 11.193
0 -0.00569515 11.173 0 -0.00883558 11.0556 0 -0.0125949 10.6897 0
-0.0145068 10.0006 0 -0.0109832 9.04946 0 -0.00617956 7.52166 0 0.00572309
11.0017 0 0.0127729 11.0093 0 0.016187 11.0201 0 0.0178953 11.0321
0 0.0175519 11.0461 0 0.0156619 11.0617 0 0.0129769 11.0791 0
0.00982349 11.0982 0 0.00619599 11.1188 0 0.00233854 11.1413 0 -0.00154885
11.1659 0 -0.00530939 11.1916 0 -0.00880052 11.2157 0 -0.0119129 11.2302
0 -0.0146209 11.2119 0 -0.0171094 11.091 0 -0.0195583 10.7244 0
-0.0194053 10.0575 0 -0.0136666 9.13284 0 -0.00729431 7.61861 0 0.00479
11.0014 0 0.0112516 11.0078 0 0.0143318 11.0174 0 0.0157171 11.0285
0 0.0150799 11.0414 0 0.0127902 11.0562 0 0.009409 11.0729 0
0.0055158 11.0922 0 0.00137262 11.114 0 -0.00309869 11.1381 0 -0.00764457
11.165 0 -0.0120558 11.1945 0 -0.0161358 11.2257 0 -0.0196932 11.2555
0 -0.0225831 11.2752 0 -0.0247446 11.2599 0 -0.0262692 11.1381 0
-0.0270636 10.7755 0 -0.0246379 10.1318 0 -0.0165149 9.23141 0 -0.00845943
7.7278 0 0.00404957 11.0011 0 0.0098844 11.0066 0 0.012642 11.0152
0 0.0136937 11.0252 0 0.0127622 11.0372 0 0.0100718 11.051 0
0.00608441 11.0669 0 0.00118466 11.0855 0 -0.00402908 11.1075 0 -0.00924542
11.1329 0 -0.0146041 11.1615 0 -0.0198386 11.1936 0 -0.024701 11.229
0 -0.0289474 11.2666 0 -0.032355 11.3029 0 -0.0347616 11.3287 0
-0.0360689 11.3177 0 -0.0362854 11.1975 0 -0.0350846 10.8428 0 -0.0301848
10.2225 0 -0.0195128 9.34445 0 -0.00965423 7.84849 0 0.00348165 11.001
0 0.00871807 11.0056 0 0.0111035 11.0133 0 0.0118325 11.0224 0
0.0106102 11.0333 0 0.00753357 11.046 0 0.00295382 11.061 0 -0.00282354
11.0788 0 -0.00941953 11.1002 0 -0.0160899 11.1258 0 -0.02244 11.1558
0 -0.0286928 11.1897 0 -0.0345432 11.228 0 -0.0396972 11.2702 0
-0.0438805 11.315 0 -0.0468596 11.3587 0 -0.0484594 11.3914 0 -0.0485587
11.3858 0 -0.0470977 11.2696 0 -0.0435793 10.9258 0 -0.0360064 10.3288
0 -0.0226189 9.47086 0 -0.0108483 7.97948 0 0.00304138 11.0008 0
0.00776344 11.0048 0 0.00976015 11.0117 0 0.0101319 11.0199 0 0.00863363
11.0298 0 0.00519426 11.0415 0 5.21655e-05 11.0553 0 -0.00656983 11.0721
0 -0.0143746 11.0926 0 -0.0228795 11.1175 0 -0.0311295 11.1477 0
-0.0386337 11.1833 0 -0.0457118 11.2236 0 -0.0520129 11.2689 0 -0.0572126
11.3188 0 -0.0610291 11.3716 0 -0.0632277 11.4234 0 -0.0636404 11.4638
0 -0.0621428 11.4647 0 -0.0586256 11.3545 0 -0.0524827 11.0236 0
-0.042031 10.4492 0 -0.0257838 9.60938 0 -0.0120281 8.11952 0 0.00269388
11.0007 0 0.00697847 11.0043 0 0.00864328 11.0105 0 0.00865383 11.0178
0 0.00683715 11.0266 0 0.00306755 11.0372 0 -0.00259399 11.0499 0
-0.0100109 11.0655 0 -0.0189725 11.0848 0 -0.0290864 11.1087 0 -0.0397121
11.1381 0 -0.0496276 11.174 0 -0.0582278 11.2161 0 -0.065963 11.2637
0 -0.0724522 11.317 0 -0.0773654 11.3754 0 -0.0804279 11.437 0
-0.0814279 11.4975 0 -0.0802234 11.5462 0 -0.0767085 11.5544 0 -0.07075
11.4518 0 -0.061687 11.1354 0 -0.0482005 10.5825 0 -0.02897 9.75867
0 -0.0131825 8.26727 0 0.00241527 11.0006 0 0.00633041 11.0038 0
0.00772072 11.0095 0 0.00743516 11.016 0 0.00529196 11.0238 0 0.00116257
11.0333 0 -0.00496501 11.0448 0 -0.013112 11.059 0 -0.0231599 11.077
0 -0.0348118 11.0996 0 -0.0475263 11.1279 0 -0.0604555 11.1628 0
-0.072047 11.2053 0 -0.0815789 11.255 0 -0.0896942 11.311 0 -0.0960092
11.3731 0 -0.100207 11.4406 0 -0.102048 11.5115 0 -0.101368 11.5812
0 -0.0980792 11.6386 0 -0.0921248 11.6549 0 -0.0833482 11.5611 0
-0.0710853 11.2599 0 -0.0544426 10.7274 0 -0.0321417 9.91726 0 -0.0142908
8.42135 0 0.00218886 11.0006 0 0.00579119 11.0035 0 0.00695269 11.0086
0 0.00643572 11.0146 0 0.00403517 11.0215 0 -0.00044352 11.0298 0
-0.00704689 11.0399 0 -0.0158462 11.0528 0 -0.026892 11.0693 0 -0.0399898
11.0903 0 -0.0547033 11.1171 0 -0.0702886 11.1508 0 -0.0856368 11.1922
0 -0.0988084 11.2424 0 -0.108986 11.3007 0 -0.117089 11.3659 0
-0.122755 11.4376 0 -0.125713 11.5148 0 -0.125792 11.5955 0 -0.122908
11.6746 0 -0.117048 11.741 0 -0.108212 11.7657 0 -0.0962797 11.6816
0 -0.0805902 11.3958 0 -0.0606776 10.8824 0 -0.03526 10.0836 0
-0.0153418 8.5803 0 0.00200269 11.0005 0 0.00533962 11.0032 0 0.00630955
11.008 0 0.00561228 11.0134 0 0.00302084 11.0196 0 -0.00171799 11.0268
0 -0.00875452 11.0355 0 -0.018194 11.0468 0 -0.0301333 11.0616 0
-0.0445631 11.0809 0 -0.0611609 11.1059 0 -0.079295 11.1379 0 -0.0979613
11.1779 0 -0.115742 11.2269 0 -0.130269 11.286 0 -0.140674 11.354
0 -0.148244 11.4291 0 -0.152678 11.511 0 -0.153789 11.5984 0
-0.151505 11.689 0 -0.145851 11.7777 0 -0.136917 11.8529 0 -0.124785
11.8862 0 -0.109382 11.8122 0 -0.0900881 11.5417 0 -0.0668311 11.0457
0 -0.0382922 10.2562 0 -0.0163374 8.74273 0 0.00184804 11.0004 0
0.0049591 11.0029 0 0.00576786 11.0074 0 0.00493118 11.0124 0 0.00220109
11.0179 0 -0.00271684 11.0243 0 -0.0100624 11.0317 0 -0.0200593 11.0413
0 -0.0328567 11.0542 0 -0.0484851 11.0715 0 -0.0668262 11.0944 0
-0.087372 11.1243 0 -0.109235 11.1625 0 -0.131095 11.21 0 -0.151195
11.2677 0 -0.166712 11.3367 0 -0.176783 11.4152 0 -0.183168 11.5011
0 -0.185676 11.5936 0 -0.184247 11.6915 0 -0.178953 11.792 0
-0.169954 11.89 0 -0.157453 11.974 0 -0.141643 12.0157 0 -0.122501
11.9518 0 -0.0994678 11.696 0 -0.072841 11.2159 0 -0.0412179 10.4333
0 -0.0171933 8.90751 0 0.00171844 11.0004 0 0.00463657 11.0027 0
0.00530897 11.007 0 0.00436551 11.0115 0 0.00153741 11.0165 0 -0.00349674
11.0221 0 -0.0110427 11.0285 0 -0.0214273 11.0365 0 -0.0349514 11.0472
0 -0.0517191 11.0622 0 -0.0716383 11.0829 0 -0.0944271 11.1103 0
-0.119328 11.1461 0 -0.145137 11.1915 0 -0.17018 11.2477 0 -0.192342
11.3153 0 -0.208319 11.3952 0 -0.217329 11.4851 0 -0.221744 11.5822
0 -0.221541 11.6856 0 -0.216832 11.7939 0 -0.20786 11.9041 0
-0.194943 12.0112 0 -0.178415 12.1035 0 -0.158585 12.1533 0 -0.135494
12.0992 0 -0.10863 11.8574 0 -0.078664 11.3912 0 -0.0439687 10.6138
0 -0.0185033 9.07187 0 0.001609 11.0004 0 0.00436165 11.0026 0
0.00491789 11.0066 0 0.00389379 11.0108 0 0.000998914 11.0154 0 -0.00410338
11.0202 0 -0.0117664 11.0257 0 -0.0223935 11.0323 0 -0.0364161 11.0411
0 -0.0541334 11.0535 0 -0.0755479 11.0713 0 -0.100381 11.096 0
-0.128125 11.129 0 -0.157708 11.1717 0 -0.187558 11.2256 0 -0.215627
11.2916 0 -0.239409 11.3702 0 -0.255133 11.4619 0 -0.262207 11.5638
0 -0.263764 11.6725 0 -0.259997 11.787 0 -0.251233 11.9054 0
-0.237913 12.0251 0 -0.220525 12.1406 0 -0.199553 12.2406 0 -0.175415
12.2979 0 -0.148222 12.2531 0 -0.117502 12.024 0 -0.084229 11.5704
0 -0.0471758 10.7954 0 -0.0197282 9.2655 0 0.00151592 11.0003 0
0.00412613 11.0024 0 0.00458454 11.0063 0 0.0034987 11.0102 0 0.000560936
11.0143 0 -0.00457333 11.0186 0 -0.0122905 11.0232 0 -0.023049 11.0286
0 -0.0373778 11.0357 0 -0.0557433 11.0456 0 -0.0783951 11.0602 0
-0.105168 11.0816 0 -0.135523 11.1114 0 -0.16866 11.151 0 -0.203136
11.2019 0 -0.236981 11.2655 0 -0.267715 11.3425 0 -0.292488 11.433
0 -0.307076 11.5374 0 -0.311207 11.6517 0 -0.308924 11.7722 0
-0.300692 11.8974 0 -0.287082 12.0257 0 -0.268759 12.1542 0 -0.246397
12.2774 0 -0.220616 12.3843 0 -0.191943 12.4483 0 -0.160572 12.412
0 -0.125993 12.1947 0 -0.0899196 11.7513 0 -0.0499975 10.9984 0
-0.0200488 9.46447 0 0.00143618 11.0003 0 0.00392351 11.0023 0 0.00429761
11.006 0 0.00316624 11.0097 0 0.000203769 11.0135 0 -0.00493572 11.0173
0 -0.0126603 11.0211 0 -0.023467 11.0255 0 -0.037955 11.031 0
-0.0567166 11.0387 0 -0.0802139 11.0503 0 -0.10859 11.0677 0 -0.141434
11.0935 0 -0.177861 11.1294 0 -0.216725 11.1768 0 -0.256163 11.2372
0 -0.293745 11.3118 0 -0.326593 11.4009 0 -0.351536 11.5042 0
-0.363938 11.6218 0 -0.363996 11.7489 0 -0.35682 11.881 0 -0.343194
12.0167 0 -0.323964 12.1542 0 -0.300032 12.2907 0 -0.27225 12.4207
0 -0.241366 12.5335 0 -0.208016 12.6034 0 -0.172422 12.5747 0
-0.134305 12.3674 0 -0.0953264 11.9535 0 -0.0518344 11.221 0 -0.0204484
9.65901 0 0.00136734 11.0003 0 0.00374861 11.0022 0 0.0040495 11.0057
0 0.00288653 11.0092 0 -8.83701e-05 11.0127 0 -0.00521369 11.0161 0
-0.0129119 11.0193 0 -0.0237054 11.0227 0 -0.0382423 11.0268 0 -0.0572071
11.0327 0 -0.0812237 11.0415 0 -0.110702 11.0552 0 -0.14561 11.0762
0 -0.185196 11.1074 0 -0.228157 11.1507 0 -0.272941 11.2072 0
-0.317202 11.2783 0 -0.358061 11.365 0 -0.39226 11.4672 0 -0.416353
11.5842 0 -0.425361 11.7153 0 -0.420121 11.8552 0 -0.406963 11.9986
0 -0.387025 12.1442 0 -0.361448 12.2902 0 -0.331363 12.4336 0
-0.297791 12.5695 0 -0.261597 12.6872 0 -0.223472 12.762 0 -0.183841
12.7395 0 -0.142636 12.561 0 -0.100131 12.1762 0 -0.0538458 11.4398
0 -0.0208762 9.84702 0 0.00130807 11.0003 0 0.00359687 11.0021 0
0.00383525 11.0055 0 0.00264963 11.0088 0 -0.000327948 11.0121 0 -0.00542558
11.015 0 -0.0130737 11.0177 0 -0.02381 11.0203 0 -0.038315 11.0232
0 -0.0573381 11.0273 0 -0.0816235 11.0337 0 -0.111787 11.044 0
-0.148128 11.0604 0 -0.190353 11.0859 0 -0.237283 11.1237 0 -0.287105
11.1756 0 -0.337802 11.2426 0 -0.386538 11.3258 0 -0.429987 11.4258
0 -0.464543 11.542 0 -0.486576 11.6731 0 -0.490857 11.8181 0
-0.479038 11.9705 0 -0.458806 12.1247 0 -0.431682 12.2793 0 -0.399095
12.4327 0 -0.362396 12.5822 0 -0.322755 12.7227 0 -0.281105 12.8443
0 -0.238268 12.9225 0 -0.195527 12.9244 0 -0.150537 12.7746 0
-0.104726 12.3957 0 -0.0557788 11.6521 0 -0.0212319 10.0271 0 0.00346417
11.0021 0 0.00123636 11.0003 0 0.00364864 11.0053 0 0.00244792 11.0085
0 -0.000524929 11.0115 0 -0.00558589 11.0141 0 -0.0131679 11.0163 0
-0.0238166 11.0181 0 -0.0382317 11.02 0 -0.057207 11.0226 0 -0.0815728
11.0268 0 -0.1121 11.0341 0 -0.149347 11.0464 0 -0.193425 11.0664
0 -0.243703 11.0974 0 -0.298459 11.143 0 -0.35528 11.2049 0
-0.411675 11.2837 0 -0.464293 11.3803 0 -0.50939 11.4946 0 -0.543093
11.6256 0 -0.561694 11.7712 0 -0.559824 11.9298 0 -0.540122 12.0943
0 -0.511761 12.2585 0 -0.476644 12.4212 0 -0.436475 12.581 0
-0.392799 12.7352 0 -0.346889 12.8793 0 -0.299758 13.0032 0 -0.253617
13.1027 0 -0.206955 13.1285 0 -0.157731 12.9855 0 -0.108885 12.6096
0 -0.0574308 11.8564 0 -0.0214968 10.1989 0 0.0034832 11.0052 0
0.00330818 11.002 0 0.00114956 11.0002 0 0.0022746 11.0082 0 -0.000687277
11.011 0 -0.00570577 11.0133 0 -0.0132118 11.015 0 -0.0237527 11.0163
0 -0.0380383 11.0172 0 -0.0568897 11.0184 0 -0.0811972 11.0207 0
-0.111845 11.0252 0 -0.149589 11.0338 0 -0.194863 11.0488 0 -0.247527
11.0732 0 -0.306494 11.1109 0 -0.369385 11.1657 0 -0.433141 11.2392
0 -0.494758 11.3312 0 -0.550396 11.4424 0 -0.595953 11.5719 0
-0.627393 11.7182 0 -0.641062 11.8783 0 -0.63156 12.0503 0 -0.602696
12.2261 0 -0.56522 12.3992 0 -0.521399 12.5689 0 -0.473185 12.7338
0 -0.422261 12.8917 0 -0.369986 13.0379 0 -0.319258 13.1817 0
-0.268907 13.3016 0 -0.217246 13.3303 0 -0.164166 13.1915 0 -0.11245
12.8161 0 -0.058791 12.0519 0 -0.0216636 10.3618 0 0.0021204 11.0079
0 0.00330126 11.005 0 0.00311089 11.0019 0 0.00106637 11.0002 4.15602e-19
-0.00082284 11.0105 0 -0.00579378 11.0126 0 -0.0132185 11.014 0 -0.0236399
11.0146 0 -0.0377698 11.0148 0 -0.0564452 11.0148 0 -0.0805951 11.0153
0 -0.111184 11.0174 0 -0.149116 11.0226 0 -0.195073 11.033 0
-0.249309 11.0514 0 -0.311325 11.0814 0 -0.37947 11.127 0 -0.450617
11.1925 0 -0.520976 11.279 0 -0.587058 11.3857 0 -0.644579 11.5125
0 -0.689174 11.6581 0 -0.716772 11.8198 0 -0.723913 11.9943 0
-0.705297 12.179 0 -0.666054 12.3651 0 -0.618575 12.5462 0 -0.565459
12.7215 0 -0.508844 12.8903 0 -0.450512 13.0502 0 -0.394252 13.2161
0 -0.338932 13.3789 0 -0.282641 13.4984 0 -0.22644 13.5276 0
-0.169732 13.3907 0 -0.115443 13.0143 0 -0.059878 12.2379 0 -0.0217358
10.5156 0 -0.000946294 11.0102 0 0.00196894 11.0076 0 0.00308578 11.0047
1.81947e-18 0.00291966 11.0017 -1.31584e-18 0.000986342 11.0002 -8.43459e-19 -0.00585828 11.012 0
-0.0131976 11.013 0 -0.023494 11.0132 0 -0.0374533 11.0126 0 -0.0559184
11.0116 0 -0.0798422 11.0106 0 -0.110243 11.0105 0 -0.148132 11.0127
0 -0.19438 11.019 0 -0.249552 11.0319 0 -0.313624 11.0547 0
-0.385635 11.0913 0 -0.463279 11.1463 0 -0.542544 11.2241 0 -0.618884
11.3252 0 -0.688378 11.4478 0 -0.746377 11.5912 0 -0.788376 11.7532
0 -0.810419 11.9305 0 -0.809396 12.1189 0 -0.780222 12.3154 0
-0.729486 12.5107 0 -0.671247 12.6982 0 -0.608368 12.878 0 -0.543118
13.0491 0 -0.480299 13.2286 0 -0.418948 13.413 0 -0.356648 13.574
0 -0.294898 13.691 0 -0.234448 13.7188 0 -0.174453 13.5823 0
-0.117908 13.2036 0 -0.0607176 12.4142 0 -0.021726 10.6602 0 -0.00592131
11.0115 0 -0.00102914 11.0097 -3.68319e-18 0.00180106 11.0071 -1.91577e-18 0.00287613 11.0044
9.23677e-19 0.00273178 11.0016 -8.89808e-19 0.000909533 11.0002 0 -0.0131578 11.0122 0
-0.0233259 11.0119 0 -0.0371085 11.0107 0 -0.0553438 11.0087 0 -0.0789963
11.0064 0 -0.10912 11.0044 0 -0.1468 11.0039 0 -0.193046 11.0065
0 -0.248663 11.0144 0 -0.314007 11.0306 0 -0.388688 11.0588 0
-0.471196 11.1035 0 -0.558419 11.1695 0 -0.645374 11.2612 0 -0.72676
11.3783 0 -0.798313 11.5181 0 -0.855131 11.6788 0 -0.892722 11.8575
0 -0.90741 12.05 0 -0.89659 12.2516 0 -0.855502 12.4587 0
-0.792298 12.6618 0 -0.722689 12.8546 0 -0.649716 13.0371 0 -0.579371
13.2279 0 -0.510809 13.4259 0 -0.441262 13.6079 0 -0.372471 13.765
0 -0.30562 13.8778 0 -0.241291 13.9028 0 -0.178388 13.7654 0
-0.119892 13.3834 0 -0.0613402 12.5806 0 -0.0216485 10.7956 0 -0.0131316
11.0114 0 -0.00588908 11.0108 7.7519e-18 -0.00107826 11.0091 0 0.00164003 11.0067
1.94364e-18 0.00267356 11.0042 5.85115e-22 0.00254779 11.0015 0 0.000835928 11.0002 0
-0.0231447 11.0108 0 -0.0367479 11.009 0 -0.0547461 11.0062 0 -0.0781016
11.0027 0 -0.107888 10.999 0 -0.145242 10.9961 0 -0.191273 10.9954
0 -0.246965 10.9989 0 -0.312975 11.0091 0 -0.389372 11.0296 0
-0.475317 11.0645 0 -0.568604 11.1187 0 -0.665213 11.1973 0 -0.759112
11.3045 0 -0.844285 11.4391 0 -0.916251 11.597 0 -0.970008 11.7755
0 -1.00125 11.9709 0 -1.00674 12.178 0 -0.98454 12.3917 0
-0.930313 12.6082 0 -0.853834 12.8176 0 -0.772405 13.0138 0 -0.693597
13.2164 0 -0.616685 13.426 0 -0.538482 13.6214 0 -0.46122 13.7989
0 -0.386371 13.9505 0 -0.314831 14.0578 0 -0.247046 14.0789 0
-0.181605 13.9398 0 -0.121447 13.5535 0 -0.0617763 12.737 0 -0.021516
10.922 0 -0.0229979 11.0098 0 -0.0129333 11.0106 5.02423e-22 -0.00573836 11.01
0 -0.00112525 11.0085 -2.04538e-18 0.00148791 11.0063 4.18665e-22 0.00247823 11.004 0
0.00236776 11.0014 0 0.000765521 11.0001 0 -0.0363813 11.0075 0 -0.0541404
11.004 0 -0.0771893 10.9994 0 -0.106604 10.9943 0 -0.143553 10.9893
0 -0.189217 10.9856 0 -0.244714 10.985 0 -0.310928 10.9898 0
-0.388296 11.0032 0 -0.47653 11.0291 0 -0.5742 11.0722 0 -0.678296
11.1375 0 -0.78379 11.2305 0 -0.883549 11.3549 0 -0.970919 11.5082
0 -1.04139 11.685 0 -1.09002 11.8815 0 -1.11288 12.0931 0
-1.10737 12.3141 0 -1.0723 12.5385 0 -1.00386 12.7629 0 -0.913484
12.9769 0 -0.825333 13.1938 0 -0.738943 13.4156 0 -0.650662 13.6225
0 -0.563293 13.8131 0 -0.478811 13.9845 0 -0.398386 14.1293 0
-0.322628 14.2303 0 -0.251805 14.2468 0 -0.184173 14.105 0 -0.122623
13.7139 0 -0.062052 12.8837 0 -0.0213396 11.0398 0 -0.0360769 11.0062
0 -0.0225726 11.0087 -4.28704e-18 -0.0124885 11.0096 0 -0.00559229 11.0092 0
-0.00115898 11.0079 6.22195e-18 0.00134459 11.006 0 0.00228997 11.0037 0 0.00219184
11.0013 1.85417e-18 0.000698318 11.0001 0 -0.0535369 11.002 0 -0.0762777 10.9965
0 -0.105308 10.99 0 -0.141805 10.9831 0 -0.186999 10.9769 0
-0.242105 10.9727 0 -0.30818 10.9727 0 -0.385948 10.9797 0 -0.475567
10.9973 0 -0.576254 11.0299 0 -0.685881 11.0826 0 -0.800527 11.1609
0 -0.914069 11.2699 0 -1.01825 11.413 0 -1.10591 11.5862 0
-1.17273 11.7823 0 -1.21406 11.9968 0 -1.2265 12.2239 0 -1.20823
12.4575 0 -1.15898 12.6914 0 -1.07542 12.9216 0 -0.977188 13.1573
0 -0.880211 13.3941 0 -0.780372 13.6134 0 -0.681204 13.8154 0
-0.585235 13.9996 0 -0.494086 14.1636 0 -0.408626 14.3009 0 -0.329129
14.3949 0 -0.255666 14.4061 0 -0.186168 14.2609 0 -0.123468 13.8647
0 -0.0621928 13.0208 0 -0.0211299 11.1493 0 -0.0530321 11.0003 0
-0.035349 11.0047 0 -0.0217161 11.0074 -4.68514e-18 -0.0120602 11.0086 -4.52143e-18 -0.00542689
11.0085 -8.72144e-18 -0.00117937 11.0074 0 0.00121015 11.0056 -4.05047e-18 0.002109 11.0035
-3.90125e-18 0.00201999 11.0013 1.87768e-18 0.000634173 11.0001 0 -0.0753775 10.994 0
-0.104022 10.9863 0 -0.140049 10.9777 0 -0.184711 10.9691 0 -0.239291
10.9618 0 -0.304978 10.9574 0 -0.382716 10.9586 0 -0.473017 10.9687
0 -0.575634 10.9917 0 -0.689186 11.0326 0 -0.810736 11.0967 0
-0.935349 11.1896 0 -1.05574 11.3164 0 -1.16255 11.4796 0 -1.24833