#           x             T
    -0.118946       349.402
    -0.118121       349.412
    -0.117174       349.423
    -0.116087       349.431
    -0.114839       349.434
    -0.113407       349.434
    -0.111763       349.432
    -0.109877       349.428
    -0.107712       349.423
    -0.105226       349.417
    -0.102373       349.409
   -0.0990994         349.4
   -0.0953416        349.39
   -0.0914285       349.384
    -0.087619       349.388
   -0.0838095       349.411
        -0.08       349.473
   -0.0761904       349.607
   -0.0723809       349.878
   -0.0685714       350.395
   -0.0649271       351.296
    -0.061624         352.7
   -0.0586549        354.69
   -0.0559862       357.283
   -0.0535874       360.392
   -0.0514312       363.854
   -0.0494932       367.476
   -0.0477512       371.067
   -0.0461853       374.445
   -0.0447779       377.472
   -0.0435128       380.063
   -0.0423757       382.186
   -0.0413536       383.859
   -0.0404349       385.207
     -0.03925       386.449
     -0.03775       387.372
     -0.03625       387.725
     -0.03475       387.554
     -0.03325       386.973
     -0.03175       386.075
     -0.03025       384.962
     -0.02875       383.705
     -0.02725       382.348
     -0.02575       380.944
   -0.0243993       379.605
   -0.0231362       378.331
    -0.021743       376.963
   -0.0202065       375.414
   -0.0185118       373.746
   -0.0171075       372.435
   -0.0161272       371.565
   -0.0145812       370.293
    -0.012414       368.658
   -0.0103452         367.3
  -0.00847254        366.26
  -0.00711441       365.618
  -0.00630907       365.279
  -0.00524316       364.885
  -0.00385435       364.473
  -0.00259726       364.208
  -0.00133333       364.044
            0       363.977
   0.00133333       364.028
   0.00260066       364.185
   0.00386381       364.445
   0.00525697       364.853
   0.00631696       365.239
   0.00712283       365.576
    0.0084882       366.216
    0.0103573       367.247
    0.0124188       368.595
    0.0145859       370.227
    0.0161321       371.496
     0.017115       372.368
    0.0185274       373.689
    0.0202225       375.364
    0.0217568       376.918
    0.0231456       378.292
    0.0244027       379.572
      0.02575       380.923
      0.02725       382.343
      0.02875       383.718
      0.03025        384.99
      0.03175       386.114
      0.03325       387.013
      0.03475       387.589
      0.03625       387.747
      0.03775       387.373
      0.03925       386.427
    0.0404349       385.165
    0.0413536       383.801
    0.0423757       382.115
    0.0435128       379.981
    0.0447779       377.385
    0.0461853       374.358
    0.0477511       370.985
    0.0494932       367.404
    0.0514312       363.794
    0.0535874       360.346
    0.0559862        357.25
    0.0586549       354.669
     0.061624       352.687
    0.0649271       351.289
    0.0685714       350.392
    0.0723809       349.877
    0.0761904       349.607
         0.08       349.473
    0.0838095       349.411
     0.087619       349.388
    0.0914285       349.385
    0.0953419       349.391
    0.0991002         349.4
     0.102374       349.409
     0.105227       349.417
     0.107713       349.423
     0.109878       349.428
     0.111765       349.432
     0.113408       349.434
      0.11484       349.434
     0.116088       349.431
     0.117175       349.424
     0.118122       349.413
     0.118947       349.402
     0.119665       349.396
