# vtk DataFile Version 2.0
sampleSurface
ASCII
DATASET POLYDATA
POINTS 15978 float
-4.26165e-19 0.000133477 0 -4.18079e-19 -0.000798814 0 -4.33681e-19 0.001 0 -4.09379e-19 -0.00180187
0 -0.00181681 0.000361473 0 0.00181681 0.000361473 0 -0.00181396 -0.000575145 0
0.00181396 -0.000575145 0 -0.00181945 0.00123202 0 0.00181945 0.00123202 0 -0.00181089
-0.00158285 0 0.00181089 -0.00158285 0 -4.00018e-19 -0.00288105 0 -0.00180759 -0.00266704
0 0.00180759 -0.00266704 0 -0.00351565 8.15481e-05 0 0.00351565 8.15481e-05 0
-0.00351186 -0.000939823 0 0.00351186 -0.000939823 0 -0.00351918 0.00103087 0 0.00351918
0.00103087 0 -0.00352245 0.00191322 0 0.00352245 0.00191322 0 -3.89947e-19 -0.00404214
0 -0.00350777 -0.00203871 0 0.00350777 -0.00203871 0 -0.00180405 -0.00383352 0
0.00180405 -0.00383352 0 -0.00350338 -0.00322101 0 0.00350338 -0.00322101 0 -0.005
8.60602e-05 0 0.005 8.60602e-05 0 -0.005 -0.00103629 0 0.005 -0.00103629
0 -0.005 0.00112923 0 0.005 0.00112923 0 -3.79112e-19 -0.00529135 0
-0.00180023 -0.00508853 0 0.00180023 -0.00508853 0 -0.005 0.00209882 0 0.005
0.00209882 0 -0.005 -0.00224382 0 0.005 -0.00224382 0 -0.00349866 -0.00449304
0 0.00349866 -0.00449304 0 -0.005 0.003 0 0.005 0.003 0
-0.005 -0.003543 0 0.005 -0.003543 0 -0.00637208 2.82617e-05 0 0.00639053
4.25732e-05 0 -0.00637208 0.00114892 0 -0.00637208 -0.00117745 0 0.00639053 -0.00116311
0 0.00639053 0.00116321 0 -3.67455e-19 -0.00663538 0 -0.00179612 -0.00643879 0
0.00179612 -0.00643879 0 -0.00637208 0.00219052 0 0.00639053 0.00220479 0 -0.00349357
-0.00586162 0 0.00349357 -0.00586162 0 -0.00637208 -0.00247467 0 0.00639053 -0.00246031
0 -0.005 -0.00494079 0 0.005 -0.00494079 0 -0.00637208 0.00315864 0
0.00639053 0.00317289 0 -0.00637208 -0.00387036 0 0.00639053 -0.00385597 0 -0.00637208
0.00405846 0 0.00639053 0.00407269 0 -0.00778421 -7.99569e-05 0 0.00781802 -5.3679e-05
0 -0.00778421 0.00112388 0 0.00781802 0.00115011 0 -0.00778421 -0.00137517 0
0.00781802 -0.00134884 0 -3.54912e-19 -0.00808142 0 -0.0017917 -0.00789154 0 0.0017917
-0.00789154 0 -0.00778421 0.0022428 0 -0.0034881 -0.00733407 0 0.0034881 -0.00733407
0 0.00781802 0.00226899 0 -0.005 -0.00644467 0 0.005 -0.00644467 0
-0.00778421 -0.00276868 0 0.00781802 -0.0027423 0 -0.00637208 -0.00537197 0 0.00639053
-0.00535755 0 -0.00778421 0.00328278 0 0.00781802 0.00330893 0 -0.00778421 0.00424939
0 -0.00778421 -0.00426796 0 0.00781802 -0.00424152 0 0.00781802 0.00427551 0
-0.00923755 -0.000243565 0 0.00928347 -0.000207818 0 -0.00923755 0.00104957 0 -0.00778421
0.00514782 0 0.00928347 0.00108525 0 0.00781802 0.0051739 0 -0.00923755 -0.00163485
0 0.00928347 -0.00159903 0 -0.00637208 -0.00698755 0 0.00639053 -0.0069731 0
-0.005 -0.0080627 0 0.005 -0.0080627 0 -0.00923755 0.00225148 0 0.00928347
0.0022871 0 -0.00348222 -0.00891827 0 0.00348222 -0.00891827 0 -0.00178695 -0.00945455
0 0.00178695 -0.00945455 0 -3.41418e-19 -0.00963721 0 -0.00923755 -0.00313172 0
-0.00778421 -0.00588103 0 0.00781802 -0.00585453 0 0.00928347 -0.00309583 0 -0.00923755
0.0033686 0 0.00928347 0.00340416 0 -0.00923755 0.00440692 0 0.00928347 0.00444243
0 -0.00923755 -0.00474221 0 0.00928347 -0.00470623 0 -0.00923755 0.00537198 0
-0.0107333 -0.000467921 0 0.00928347 0.00540745 0 -0.0107333 0.000921062 0 0.0107879
-0.000425364 0 0.00639053 -0.00871127 0 -0.00637208 -0.00872575 0 0.0107879 0.000963535
0 -0.00778421 -0.00761653 0 0.00781802 -0.00758997 0 -0.0107333 -0.00196233 0
0.0107879 -0.00191968 0 -0.0107333 0.00221206 0 -0.005 -0.00980352 0 0.005
-0.00980352 0 0.0107879 0.00225445 0 -0.00923755 0.00626897 0 -0.00347589 -0.0106227
0 0.00347589 -0.0106227 0 0.00928347 0.00630439 0 -0.0107333 0.00341198 0
-0.00178183 -0.0111362 0 0.00178183 -0.0111362 0 -0.00923755 -0.00647493 0 0.00928347
-0.00643887 0 -3.26899e-19 -0.0113111 0 -0.0107333 -0.00357015 0 0.0107879 0.00345431
0 0.0107879 -0.00352741 0 -0.0107333 0.00452726 0 0.0107879 0.00456952 0
-0.0107333 -0.00530001 0 0.0107879 -0.00525717 0 -0.0107333 0.00556386 0 0.0107879
0.00560606 0 -0.000743369 0.0122055 0 0.000743369 0.0122055 0 -0.00778421 -0.00948375
0 0.00781802 -0.00945713 0 -0.0122727 0.000733061 0 -0.0122727 -0.000758799 0
0.0123323 -0.000712262 0 0.0123323 0.0007795 0 0.00639053 -0.0105814 0 -0.00637208
-0.0105959 0 -0.00923755 -0.00833916 0 -0.0122727 0.00211968 0 0.00928347 -0.00830301
0 -0.0122727 -0.00236389 0 0.0123323 0.00216603 0 0.0123323 -0.00231725 0
-0.0107333 0.00652734 0 0.0107879 0.00656947 0 -0.005 -0.0116765 0 0.005
-0.0116765 0 -0.0122727 0.00340848 0 0.0123323 0.00345474 0 -0.000741126 0.0128136
0 0.000741126 0.0128136 0 -0.0107333 -0.00716117 0 0.0107879 -0.00711821 0
-0.00346908 -0.0124565 0 0.00346908 -0.0124565 0 -0.0122727 -0.00409081 0 0.0123323
-0.00404405 0 -0.0107333 0.00742284 0 -0.00177633 -0.0129455 0 0.00177633 -0.0129455
0 -0.0122727 0.00460636 0 -3.11279e-19 -0.013112 0 0.0107879 0.00746492 0
-0.002 0.013 0 0.002 0.013 0 0.0123323 0.00465255 0 -0.0007387
0.0134712 0 0.0007387 0.0134712 0 -0.0122727 0.00571974 0 0.0123323 0.00576585
0 -0.0122727 -0.00594879 0 0.0123323 -0.00590191 0 -0.002 0.0135849 0
0.002 0.0135849 0 -0.0138571 0.000479853 0 -0.00923755 -0.0103449 0 0.00928347
-0.0103086 0 0.00781802 -0.011466 0 -0.00778421 -0.0114927 0 -0.0138571 -0.00112242
0 0.0139177 0.000527252 0 0.0139177 -0.00107491 0 -0.0138571 0.0019691 0
-0.0122727 0.00675458 0 0.0139177 0.00201639 0 0.0123323 0.00680062 0 -0.0107333
-0.00916358 0 0.00639053 -0.0125934 0 0.0107879 -0.0091205 0 -0.00637208 -0.012608
0 -0.0138571 -0.0028463 0 0.0139177 -0.00279868 0 -0.000736077 0.0141824 0
0.000736077 0.0141824 0 -0.00319452 0.0138829 0 0.00320133 0.0138879 0 -0.0138571
0.00335328 0 0.0139177 0.00340049 0 -0.002 0.0142174 0 0.002 0.0142174
0 -0.0122727 0.00771641 0 0.0123323 0.00776239 0 -0.005 -0.0136916 0
0.005 -0.0136916 0 -0.0138571 0.00463982 0 -0.0122727 -0.0079478 0 -0.0138571
-0.00470103 0 0.0123323 -0.00790078 0 0.0139177 -0.00465328 0 0.0139177 0.00468694
0 -0.00319452 0.0144678 0 0.00320133 0.0144728 0 -0.00346175 -0.0144295 0
0.00346175 -0.0144295 0 -0.00073324 0.0149515 0 0.00073324 0.0149515 0 -0.0122727
0.00861039 0 -0.00177041 -0.0148921 0 0.00177041 -0.0148921 0 -0.002 0.0149014
0 0.002 0.0149014 0 -0.0138571 0.0058356 0 -2.94473e-19 -0.0150496 0
0.0123323 0.00865631 0 0.0139177 0.00588264 0 -0.0138571 -0.00669653 0 0.0139177
-0.00664864 0 -0.00319452 0.0151003 0 0.00320133 0.0151053 0 -0.0154877 0.000155282
0 -0.0138571 0.00694702 0 -0.00451419 0.0148583 0 0.0045263 0.0148673 0
0.00928347 -0.0124665 0 -0.00923755 -0.0125028 0 0.0155453 0.000200444 0 -0.0154877
-0.00156548 0 0.0139177 0.00699399 0 -0.0154877 0.00175466 0 -0.0107333 -0.011318
0 0.0107879 -0.0112748 0 0.0155453 -0.00152021 0 0.0155453 0.00179972 0
0.00781802 -0.0136273 0 -0.00778421 -0.0136541 0 -0.002 0.0156411 0 0.002
0.0156411 0 -0.000730172 0.0157833 0 0.000730172 0.0157833 0 -0.0154877 0.0032412
0 -0.0154877 -0.00341685 0 0.0155453 0.00328617 0 -0.0122727 -0.0100985 0
0.0155453 -0.00337146 0 0.0123323 -0.0100514 0 -0.0138571 0.00798004 0 0.0139177
0.00802694 0 0.00639053 -0.0147581 0 -0.00637208 -0.0147727 0 -0.00451419 0.0154432
0 0.0045263 0.0154521 0 -0.00319452 0.0157843 0 0.00320133 0.0157893 0
-0.0154877 0.00462288 0 0.0155453 0.00466776 0 -0.0154877 -0.00540874 0 -0.0138571
-0.00884348 0 0.0155453 -0.00536322 0 0.0139177 -0.00879545 0 -0.0138571 0.00894019
0 -0.002 0.0164411 0 0.002 0.0164411 0 0.0139177 0.00898702 0
-0.0154877 0.00590709 0 -0.005 -0.0158596 0 0.005 -0.0158596 0 0.0155453
0.00595189 0 -0.00451419 0.0160757 0 -0.000726854 0.0166828 0 0.000726854 0.0166828
0 0.0045263 0.0160846 0 -0.00319452 0.016524 0 0.00320133 0.016529 0
-0.00345386 -0.0165523 0 0.00345386 -0.0165523 0 -0.0138571 0.0098326 0 -0.00597213
0.0159359 0 0.00598764 0.0159474 0 -0.0154877 0.00710071 0 0.0139177 0.00987937
0 -0.00176404 -0.0169864 0 0.00176404 -0.0169864 0 0.0155453 0.00714543 0
-2.76391e-19 -0.0171343 0 -0.0171658 -0.000247278 0 0.0172162 -0.000207752 0 -0.0171658
0.00147028 0 -0.0154877 -0.0075518 0 0.0155453 -0.00750615 0 0.0172162 0.00150971
0 -0.0171658 -0.00209519 0 0.0172162 -0.00205556 0 0.0107879 -0.0135925 0
-0.0107333 -0.0136359 0 -0.00451419 0.0167597 0 0.0045263 0.0167686 0 -0.002
0.0173062 0 0.002 0.0173062 0 -0.0171658 0.00306667 0 -0.0122727 -0.0124125
0 0.00928347 -0.0147881 0 0.0123323 -0.0123652 0 -0.00923755 -0.0148246 0
0.0172162 0.00310601 0 -0.0154877 0.00821012 0 -0.00597213 0.0165208 0 0.00598764
0.0165323 0 0.0155453 0.00825477 0 -0.00319452 0.017324 0 0.00320133 0.017329
0 -0.0171658 -0.00408336 0 -0.000723266 0.0176555 0 0.000723266 0.0176555 0
0.0172162 -0.00404362 0 -0.0171658 0.00455044 0 0.00781802 -0.0159527 0 -0.00778421
-0.0159796 0 -0.0138571 -0.0111534 0 0.0139177 -0.0111052 0 0.0172162 0.0045897
0 -0.0154877 0.00924127 0 -0.00451419 0.0174994 0 0.0045263 0.0175084 0
0.0155453 0.00928585 0 -0.0171658 0.00592954 0 -0.00597213 0.0171533 0 0.00598764
0.0171648 0 0.0172162 0.00596872 0 0.00639053 -0.0170872 0 -0.00637208 -0.0171018
0 -0.0171658 -0.00622243 0 0.0172162 -0.00618257 0 -0.002 0.0182418 0
0.002 0.0182418 0 -0.0154877 -0.00985753 0 0.0155453 -0.00981172 0 -0.00319452
0.0181891 0 0.00320133 0.0181941 0 -0.0154877 0.0101997 0 0.0155453 0.0102442
0 -0.0171658 0.00721136 0 0.0172162 0.00725047 0 -0.000719385 0.0187075 0
0.000719385 0.0187075 0 -0.00758282 0.0171264 0 0.00759938 0.0171387 0 -0.00597213
0.0178373 0 0.00598764 0.0178488 0 -0.00451419 0.0182994 0 0.0045263 0.0183083
0 -0.005 -0.0181922 0 0.005 -0.0181922 0 -0.018893 -0.00073496 0
-0.018893 0.0011094 0 0.0189314 -0.000704684 0 0.0189314 0.0011396 0 -0.0154877
0.0110905 0 -0.018893 -0.0027193 0 -0.018893 0.00282365 0 -0.0171658 0.00840275
0 0.0189314 -0.00268894 0 0.0155453 0.0111349 0 0.0189314 0.00285377 0
-0.00344538 -0.0188361 0 0.00344538 -0.0188361 0 -0.0171658 -0.00852385 0 0.0172162
0.00844179 0 0.0172162 -0.00848386 0 -0.00758282 0.0177113 0 0.00759938 0.0177235
0 -0.0122727 -0.0149021 0 0.0123323 -0.0148546 0 -0.00175719 -0.0192397 0
[...]
CELL_DATA 15677
FIELD attributes 1
U 3 15677 float
-0.304869 10.2652 0 0.190476 10.9192 0 -0.101143 9.44665 0 0.0315557 10.9901
0 0.118849 10.7323 0 -0.0119251 8.75825 0 0.0455272 11.0075 0
0.0144915 10.9815 0 0.0577199 10.4718 0 0.0115341 8.2291 0 0.046694
11.0122 0 0.0433986 11.0311 0 0.0261034 10.9286 0 0.0319168 10.1906
0 0.0113279 7.85574 0 0.04401 11.0135 0 0.0424179 11.0439 0
0.0428234 11.0208 0 0.0332544 10.8602 0 0.0213825 9.90256 0 0.00644684
7.61139 0 0.0413738 11.0136 0 0.040461 11.0462 0 0.0402301 11.0448
0 0.0399188 11.0048 0 0.0328468 10.7689 0 0.0159663 9.63704 0
0.00251194 7.45804 0 0.038632 11.0131 0 0.0390064 11.0453 0 0.0394117
11.0533 0 0.038537 11.0444 0 0.0358845 10.9823 0 0.0288848 10.6566
0 0.0121772 9.4117 0 0.000570951 7.36134 0 0.0356054 11.0123 0
0.0373947 11.0435 0 0.0387505 11.0559 0 0.0384941 11.0586 0 0.0360989
11.0419 0 0.0318846 10.9524 0 0.0241111 10.5319 0 0.00903766 9.23649
0 2.42718e-05 7.29902 0 0.0323221 11.0113 0 0.0354882 11.0411 0
0.0376695 11.0557 0 0.0379443 11.0639 0 0.0361804 11.0631 0 0.0329748
11.036 0 0.0284698 10.9168 0 0.0195235 10.3972 0 0.00647856 9.10552
0 -0.000228874 7.25624 0 0.0288443 11.0101 0 0.0333615 11.0382 0
0.0362809 11.0539 0 0.0370112 11.0651 0 0.0356362 11.0715 0 0.0330384
11.0658 0 0.0298883 11.0283 0 0.0254703 10.8751 0 0.0155002 10.2682
0 0.0044264 9.01044 0 -0.000458776 7.23155 0 0.025251 11.009 0
0.0310373 11.0349 0 0.0346343 11.0513 0 0.0358073 11.0642 0 0.0347439
11.0743 0 0.0325042 11.078 0 0.0298639 11.0681 0 0.0269091 11.0205
0 0.0222689 10.8295 0 0.0118816 10.1579 0 0.00268803 8.94428 0
-0.000663457 7.21978 0 0.0215255 11.0077 0 0.0285197 11.0312 0 0.032722
11.048 0 0.0343404 11.0621 0 0.0335652 11.0744 0 0.0315802 11.0828
0 0.0292254 11.0847 0 0.0267286 11.0716 0 0.0236293 11.0134 0
0.0185783 10.7833 0 0.00849054 10.0688 0 0.00112312 8.902 0 -0.0010781
7.22157 0 0.0178189 11.0065 0 0.0259253 11.0274 0 0.0305297 11.0442
0 0.0325949 11.0591 0 0.0321043 11.0728 0 0.0303212 11.084 0
0.0281179 11.0918 0 0.0258322 11.093 0 0.0232533 11.0774 0 0.0199505
11.0077 0 0.0144633 10.7394 0 0.00518682 10.0034 0 -0.000510921 8.88076
0 -0.00169658 7.23663 0 0.0146187 11.0053 0 0.0232475 11.0233 0
0.0280879 11.0398 0 0.0305533 11.0552 0 0.0303528 11.0701 0 0.0287435
11.0831 0 0.0266126 11.0942 0 0.0243688 11.1025 0 0.0219531 11.104
0 0.0192412 11.0862 0 0.0157683 11.0047 0 0.00999398 10.7033 0
0.00172282 9.9606 0 -0.00218262 8.87859 0 -0.00236215 7.26532 0 0.0120406
11.0043 0 0.020713 11.0196 0 0.0254264 11.035 0 0.028203 11.0507
0 0.0282947 11.0663 0 0.0268428 11.0807 0 0.0247353 11.094 0
0.0224309 11.1062 0 0.0199757 11.116 0 0.0173675 11.1184 0 0.0145083
11.0989 0 0.0108792 11.006 0 0.00511261 10.6779 0 -0.00185654 9.93961
0 -0.00406913 8.89473 0 -0.00318614 7.30779 0 0.00988023 11.0034 0
0.0184546 11.0164 0 0.0228439 11.0305 0 0.0255484 11.0455 0 0.0259107
11.0617 0 0.0246026 11.0772 0 0.022484 11.092 0 0.0200479 11.1067
0 0.0174292 11.121 0 0.0146999 11.133 0 0.0118871 11.1371 0
0.00886948 11.1166 0 0.00519077 11.0134 0 -0.000241083 10.6659 0 -0.00571498
9.93935 0 -0.0061541 8.92815 0 -0.00410069 7.36422 0 0.00823444 11.0027
0 0.0164635 11.0136 0 0.0205119 11.0265 0 0.0228971 11.0405 0
0.0231901 11.0563 0 0.0220021 11.0726 0 0.0198433 11.0887 0 0.017218
11.1051 0 0.0143413 11.1222 0 0.0113444 11.1394 0 0.00832797 11.1544
0 0.00531043 11.1611 0 0.00221556 11.1402 0 -0.00133032 11.0285 0
-0.00609673 10.6684 0 -0.00989598 9.95888 0 -0.00844963 8.9788 0 -0.00509616
7.43441 0 0.00684941 11.0021 0 0.0145401 11.0112 0 0.0183564 11.023
0 0.0204493 11.036 0 0.0204323 11.0509 0 0.0190268 11.0671 0
0.016794 11.0842 0 0.0139272 11.102 0 0.0107077 11.1209 0 0.00732527
11.1412 0 0.00393222 11.1621 0 0.000631107 11.181 0 -0.00251653 11.1911
0 -0.00554092 11.1707 0 -0.0087068 11.053 0 -0.0124932 10.6867 0
-0.0144331 9.99726 0 -0.0109403 9.04587 0 -0.00615992 7.51816 0 0.00571893
11.0017 0 0.012876 11.0093 0 0.0163585 11.02 0 0.0181405 11.0319
0 0.0178565 11.0458 0 0.0159994 11.0613 0 0.013323 11.0785 0
0.0101597 11.0974 0 0.00651377 11.1178 0 0.00263342 11.1401 0 -0.00127871
11.1645 0 -0.00506453 11.19 0 -0.00858114 11.2137 0 -0.0117175 11.228
0 -0.0144512 11.2094 0 -0.0169668 11.0881 0 -0.0194453 10.7211 0
-0.0193232 10.0539 0 -0.0136193 9.12892 0 -0.00727268 7.61479 0 0.00479082
11.0014 0 0.0113533 11.0078 0 0.0145114 11.0174 0 0.0159865 11.0283
0 0.0154137 11.0412 0 0.0131676 11.0558 0 0.00980545 11.0724 0
0.00590863 11.0914 0 0.00174646 11.113 0 -0.00274922 11.1369 0 -0.00732179
11.1636 0 -0.0117603 11.1929 0 -0.0158675 11.2238 0 -0.0194514 11.2533
0 -0.0223679 11.2727 0 -0.0245569 11.2571 0 -0.0261113 11.1349 0
-0.0269385 10.7719 0 -0.0245473 10.1277 0 -0.0164627 9.22714 0 -0.00843565
7.72365 0 0.00405446 11.0011 0 0.00999282 11.0065 0 0.0128386 11.0151
0 0.0139802 11.0251 0 0.0131256 11.0369 0 0.0104876 11.0506 0
0.00652847 11.0663 0 0.00163509 11.0848 0 -0.00359195 11.1066 0 -0.00883408
11.1318 0 -0.0142214 11.1601 0 -0.0194854 11.1919 0 -0.0243771 11.2271
0 -0.028652 11.2645 0 -0.0320883 11.3005 0 -0.0345238 11.326 0
-0.0358614 11.3146 0 -0.0361109 11.194 0 -0.0349465 10.8388 0 -0.0300845
10.2181 0 -0.0194554 9.33981 0 -0.00962875 7.844 0 0.00348944 11.001
0 0.00882913 11.0056 0 0.0113122 11.0132 0 0.0121407 11.0223 0
0.0110011 11.033 0 0.00798657 11.0457 0 0.00344406 11.0604 0 -0.00231839
11.0781 0 -0.00891782 11.0992 0 -0.0156086 11.1247 0 -0.0219893 11.1544
0 -0.0282739 11.1881 0 -0.0341561 11.2261 0 -0.039341 11.2681 0
-0.0435549 11.3126 0 -0.046565 11.356 0 -0.0481965 11.3884 0 -0.0483295
11.3825 0 -0.0469054 11.2658 0 -0.0434272 10.9215 0 -0.0358962 10.324
0 -0.022556 9.46584 0 -0.0108209 7.97463 0 0.00305092 11.0008 0
0.00786976 11.0048 0 0.00998047 11.0117 0 0.0104593 11.0198 0 0.00905255
11.0295 0 0.00568323 11.0411 0 0.000587034 11.0548 0 -0.0060114 11.0714
0 -0.0138114 11.0917 0 -0.0223266 11.1163 0 -0.0306019 11.1464 0
-0.0381403 11.1816 0 -0.0452526 11.2217 0 -0.0515872 11.2668 0 -0.05682
11.3164 0 -0.0606698 11.3689 0 -0.0629022 11.4204 0 -0.0633503 11.4605
0 -0.0618903 11.461 0 -0.0584141 11.3503 0 -0.0523158 11.0189 0
-0.0419103 10.444 0 -0.0257151 9.60397 0 -0.0119985 8.1143 0 0.00270456
11.0007 0 0.00708529 11.0043 0 0.00888026 11.0104 0 0.00899955 11.0176
0 0.0072833 11.0264 0 0.00359161 11.0369 0 -0.00201582 11.0494 0
-0.00940083 11.0648 0 -0.0183493 11.0839 0 -0.0284652 11.1076 0 -0.0391057
11.1368 0 -0.0490497 11.1724 0 -0.0576867 11.2142 0 -0.0654582 11.2616
0 -0.0719832 11.3146 0 -0.0769323 11.3727 0 -0.080031 11.434 0
-0.0810687 11.4942 0 -0.0799038 11.5425 0 -0.0764308 11.5504 0 -0.0705179
11.4473 0 -0.0615043 11.1303 0 -0.0480684 10.577 0 -0.028895 9.75285
0 -0.0131503 8.26168 0 0.00242668 11.0006 0 0.0064388 11.0038 0
0.00797006 11.0094 0 0.0077988 11.0159 0 0.00576392 11.0236 0 0.00172081
11.0329 0 -0.00434494 11.0443 0 -0.0124518 11.0584 0 -0.0224783 11.0761
0 -0.0341239 11.0986 0 -0.0468447 11.1266 0 -0.0597911 11.1612 0
-0.0714132 11.2035 0 -0.0809842 11.2529 0 -0.0891381 11.3086 0 -0.0954918
11.3704 0 -0.0997291 11.4376 0 -0.10161 11.5082 0 -0.100972 11.5776
0 -0.0977275 11.6346 0 -0.0918202 11.6505 0 -0.0830942 11.5562 0
-0.0708857 11.2545 0 -0.0542981 10.7215 0 -0.0320597 9.91103 0 -0.0142561
8.41537 0 0.00220069 11.0006 0 0.00590203 11.0035 0 0.00721208 11.0086
0 0.00681397 11.0145 0 0.00453005 11.0213 0 0.000146497 11.0294 0
-0.00638627 11.0395 0 -0.0151376 11.0522 0 -0.0261537 11.0684 0 -0.0392369
11.0893 0 -0.053948 11.1159 0 -0.0695415 11.1492 0 -0.0849079 11.1904
0 -0.0981117 11.2404 0 -0.108331 11.2984 0 -0.116475 11.3633 0
-0.122184 11.4346 0 -0.125186 11.5116 0 -0.125309 11.5919 0 -0.122472
11.6707 0 -0.116662 11.7366 0 -0.107878 11.7609 0 -0.0960023 11.6763
0 -0.0803722 11.39 0 -0.0605199 10.876 0 -0.0351706 10.0769 0
-0.0153043 8.57392 0 0.00201476 11.0005 0 0.00545354 11.0032 0 0.00657754
11.0079 0 0.00600309 11.0133 0 0.00353539 11.0194 0 -0.00110027 11.0265
0 -0.00805652 11.0351 0 -0.0174386 11.0462 0 -0.0293402 11.0608 0
-0.0437471 11.0799 0 -0.0603338 11.1047 0 -0.0784669 11.1364 0 -0.0971416
11.1762 0 -0.114941 11.2249 0 -0.129502 11.2837 0 -0.139952 11.3514
0 -0.147567 11.4262 0 -0.152047 11.5078 0 -0.153207 11.5949 0
-0.150974 11.6851 0 -0.145372 11.7734 0 -0.136494 11.8483 0 -0.12442
11.8811 0 -0.109079 11.8065 0 -0.0898505 11.5354 0 -0.0666595 11.0389
0 -0.0381948 10.2491 0 -0.0162969 8.73592 0 0.00186025 11.0005 0
0.00507649 11.0029 0 0.00604335 11.0074 0 0.00533263 11.0123 0 0.00273242
11.0177 0 -0.00207523 11.0239 0 -0.00933185 11.0313 0 -0.019261 11.0407
0 -0.0320109 11.0534 0 -0.047608 11.0706 0 -0.0659294 11.0932 0
-0.0864649 11.1229 0 -0.108326 11.1607 0 -0.130194 11.208 0 -0.150313
11.2655 0 -0.165866 11.3342 0 -0.175986 11.4124 0 -0.182421 11.4979
0 -0.184981 11.5901 0 -0.183607 11.6876 0 -0.17837 11.7877 0
-0.16943 11.8854 0 -0.15699 11.969 0 -0.141246 12.0102 0 -0.122171
11.9458 0 -0.0992093 11.6894 0 -0.0726541 11.2086 0 -0.0411119 10.4257
0 -0.0171497 8.90028 0 0.00173072 11.0004 0 0.00475758 11.0027 0
0.00559122 11.0069 0 0.00477587 11.0114 0 0.00208293 11.0164 0 -0.00283464
11.0218 0 -0.0102841 11.0281 0 -0.0205916 11.0359 0 -0.0340572 11.0465
0 -0.0507833 11.0613 0 -0.0706741 11.0817 0 -0.0934433 11.1089 0
-0.118333 11.1444 0 -0.144139 11.1896 0 -0.169188 11.2455 0 -0.191369
11.3128 0 -0.207386 11.3924 0 -0.216449 11.4819 0 -0.220921 11.5787
0 -0.220776 11.6818 0 -0.216129 11.7896 0 -0.20722 11.8996 0
-0.194369 12.0062 0 -0.177911 12.0981 0 -0.158152 12.1474 0 -0.135136
12.0928 0 -0.108349 11.8503 0 -0.0784607 11.3835 0 -0.0438535 10.6058
0 -0.0184546 9.0642 0 0.0016213 11.0004 0 0.00448633 11.0026 0
0.00520654 11.0065 0 0.00431158 11.0107 0 0.00155637 11.0152 0 -0.00342374
11.02 0 -0.0109835 11.0253 0 -0.0215255 11.0317 0 -0.0354797 11.0404
0 -0.0531437 11.0526 0 -0.0745187 11.0701 0 -0.0993228 11.0947 0
-0.127046 11.1274 0 -0.156614 11.1699 0 -0.18646 11.2235 0 -0.214534
11.2892 0 -0.238337 11.3674 0 -0.254104 11.4588 0 -0.261238 11.5603
0 -0.262858 11.6687 0 -0.259157 11.7828 0 -0.250462 11.9009 0
-0.237212 12.0201 0 -0.219899 12.1353 0 -0.199003 12.2348 0 -0.174943
12.2916 0 -0.147831 12.2462 0 -0.117197 12.0165 0 -0.0840081 11.5622
0 -0.0470489 10.7869 0 -0.0196743 9.2573 0 0.00152826 11.0004 0
0.00425436 11.0024 0 0.00487748 11.0062 0 0.00392279 11.0101 0 0.00112841
11.0142 0 -0.00387868 11.0184 0 -0.0114866 11.0228 0 -0.0221531 11.0281
0 -0.036405 11.035 0 -0.0547066 11.0448 0 -0.0773062 11.0591 0
-0.104038 11.0803 0 -0.134362 11.1098 0 -0.167474 11.1491 0 -0.201933
11.1998 0 -0.235771 11.2631 0 -0.266511 11.3398 0 -0.291307 11.43
0 -0.305942 11.534 0 -0.310141 11.6479 0 -0.307929 11.768 0
-0.29977 11.8929 0 -0.286237 12.0208 0 -0.267993 12.1488 0 -0.245713
12.2717 0 -0.220017 12.378 0 -0.191431 12.4416 0 -0.160149 12.4046
0 -0.125662 12.1867 0 -0.0896788 11.7426 0 -0.0498585 10.9894 0
-0.0199911 9.45569 0 0.00144861 11.0003 0 0.00405497 11.0023 0 0.00459511
11.0059 0 0.00359586 11.0095 0 0.000779638 11.0133 0 -0.00422819 11.017
0 -0.0118384 11.0207 0 -0.0225469 11.0249 0 -0.0369507 11.0303 0
-0.0556393 11.0379 0 -0.0790732 11.0493 0 -0.107395 11.0664 0 -0.140194
11.092 0 -0.176585 11.1277 0 -0.215421 11.1748 0 -0.254838 11.2349
0 -0.292412 11.3091 0 -0.325266 11.3979 0 -0.350235 11.5009 0
-0.362691 11.6181 0 -0.362825 11.7448 0 -0.355727 11.8765 0 -0.342184
12.0118 0 -0.32304 12.1489 0 -0.299196 12.2849 0 -0.271505 12.4146
0 -0.240714 12.5269 0 -0.20746 12.5962 0 -0.171963 12.5669 0
-0.133946 12.359 0 -0.0950635 11.9444 0 -0.0516843 11.2114 0 -0.0203862
9.64964 0 0.00137994 11.0003 0 0.00388289 11.0022 0 0.00435258 11.0057
0 0.00331976 11.0091 0 0.000494599 11.0125 0 -0.0044951 11.0158 0
-0.0120743 11.0189 0 -0.0227644 11.0222 0 -0.0372107 11.0262 0 -0.0560948
11.0319 0 -0.0800382 11.0405 0 -0.10945 11.054 0 -0.144299 11.0747
0 -0.183835 11.1057 0 -0.226755 11.1487 0 -0.271506 11.2049 0
-0.315744 11.2758 0 -0.356594 11.3621 0 -0.3908 11.464 0 -0.414923
11.5805 0 -0.423992 11.7113 0 -0.418837 11.8508 0 -0.405767 11.9938
0 -0.385922 12.139 0 -0.360439 12.2845 0 -0.330453 12.4275 0
-0.296981 12.563 0 -0.26089 12.6801 0 -0.222869 12.7544 0 -0.183343
12.7312 0 -0.142244 12.552 0 -0.0998444 12.1664 0 -0.0536822 11.4295
0 -0.020809 9.83706 0 0.00132091 11.0003 0 0.00373347 11.0021 0
0.00414207 11.0054 0 0.00308599 11.0087 0 0.000260958 11.0119 0 -0.00469744
11.0148 0 -0.0122225 11.0173 0 -0.0228508 11.0198 0 -0.0372596 11.0226
0 -0.0561954 11.0265 0 -0.0803993 11.0327 0 -0.110486 11.0428 0
-0.146755 11.0591 0 -0.188913 11.0843 0 -0.235787 11.1218 0 -0.285563
11.1735 0 -0.336223 11.2401 0 -0.384934 11.323 0 -0.428373 11.4226
0 -0.462939 11.5385 0 -0.485006 11.6692 0 -0.489356 11.8137 0
-0.477631 11.9657 0 -0.457498 12.1195 0 -0.430477 12.2737 0 -0.397996
12.4267 0 -0.361405 12.5756 0 -0.321875 12.7157 0 -0.280338 12.8368
0 -0.237615 12.9144 0 -0.194985 12.9156 0 -0.150108 12.765 0
-0.104413 12.3853 0 -0.0556006 11.6412 0 -0.0211594 10.0166 0 0.00360306
11.002 0 0.00124945 11.0003 0 0.00395841 11.0053 0 0.00288774 11.0084
0 6.90504e-05 11.0113 0 -0.00484946 11.0139 0 -0.0123048 11.0159 0
-0.0228414 11.0177 0 -0.0371557 11.0194 0 -0.0560378 11.0218 0 -0.080315
11.0259 0 -0.110756 11.0329 0 -0.147919 11.045 0 -0.191917 11.0648
0 -0.242121 11.0955 0 -0.296814 11.1409 0 -0.353584 11.2025 0
-0.409938 11.281 0 -0.46253 11.3772 0 -0.507618 11.4912 0 -0.541334
11.6217 0 -0.559975 11.7669 0 -0.558182 11.9251 0 -0.538585 12.0891
0 -0.510334 12.2529 0 -0.475331 12.4152 0 -0.435279 12.5745 0
-0.391723 12.7282 0 -0.345934 12.8719 0 -0.298927 12.9953 0 -0.252906
13.0941 0 -0.206361 13.1192 0 -0.157264 12.9753 0 -0.108545 12.5985
0 -0.0572374 11.8449 0 -0.0214189 10.1877 0 0.00379564 11.0051 0
0.00344984 11.002 0 0.00116277 11.0002 0 0.00271725 11.0081 0 -8.8856e-05
11.0108 0 -0.00496212 11.0131 0 -0.0123384 11.0147 0 -0.0227637 11.0158
0 -0.0369442 11.0167 0 -0.0556975 11.0177 0 -0.0799103 11.0198 0
-0.110464 11.0242 0 -0.148115 11.0325 0 -0.193296 11.0473 0 -0.245871
11.0715 0 -0.304756 11.1089 0 -0.367578 11.1634 0 -0.431277 11.2365
0 -0.492851 11.3282 0 -0.548462 11.439 0 -0.594011 11.5682 0
-0.625468 11.714 0 -0.639182 11.8737 0 -0.629766 12.0453 0 -0.601019
12.2206 0 -0.563664 12.3933 0 -0.51997 12.5625 0 -0.471886 12.7269
0 -0.421094 12.8843 0 -0.368953 13.03 0 -0.318353 13.1733 0
-0.268128 13.2924 0 -0.216599 13.3203 0 -0.163658 13.1806 0 -0.112081
12.8044 0 -0.0585822 12.0396 0 -0.0215805 10.3501 0 0.00256573 11.0078
0 0.00361515 11.0049 0 0.00325381 11.0018 0 0.00107967 11.0002 4.2948e-19
-0.000220503 11.0104 0 -0.00504381 11.0124 0 -0.0123361 11.0136 0 -0.0226387
11.0142 0 -0.03666 11.0142 0 -0.0552329 11.0141 0 -0.0792829 11.0145
0 -0.109772 11.0164 0 -0.147601 11.0214 0 -0.193455 11.0316 0
-0.247588 11.0498 0 -0.309505 11.0794 0 -0.37756 11.1248 0 -0.448632
11.19 0 -0.518931 11.2761 0 -0.584969 11.3825 0 -0.642462 11.5089
0 -0.687051 11.654 0 -0.714669 11.8153 0 -0.721862 11.9894 0
-0.703341 12.1736 0 -0.664228 12.3593 0 -0.616883 12.5398 0 -0.563907
12.7147 0 -0.507435 12.8829 0 -0.449249 13.0424 0 -0.393126 13.2076
0 -0.33794 13.3699 0 -0.281791 13.4886 0 -0.225736 13.517 0
-0.169182 13.3792 0 -0.115045 13.002 0 -0.0596536 12.225 0 -0.0216476
10.5033 0 -0.000340151 11.01 0 0.00241623 11.0075 0 0.00340156 11.0046
1.88023e-18 0.00306413 11.0017 -1.35978e-18 0.000999767 11.0002 -8.71623e-19 -0.00510274 11.0118 0
-0.0123072 11.0127 0 -0.0224822 11.0128 0 -0.0363298 11.0121 0 -0.0546886
11.0109 0 -0.0785078 11.0097 0 -0.108803 11.0095 0 -0.146583 11.0115
0 -0.192719 11.0176 0 -0.247776 11.0303 0 -0.311734 11.0528 0
-0.383637 11.0892 0 -0.461183 11.1439 0 -0.540368 11.2214 0 -0.616646
11.3221 0 -0.686093 11.4443 0 -0.744065 11.5873 0 -0.786061 11.7489
0 -0.808128 11.9257 0 -0.807162 12.1137 0 -0.778093 12.3097 0
-0.727499 12.5044 0 -0.66941 12.6915 0 -0.606684 12.8707 0 -0.541593
13.0413 0 -0.478922 13.2202 0 -0.417714 13.404 0 -0.355565 13.5643
0 -0.293974 13.6806 0 -0.233687 13.7076 0 -0.173859 13.5702 0
-0.117481 13.1906 0 -0.0604776 12.4007 0 -0.0216328 10.6472 0 -0.00516044
11.0112 0 -0.000420165 11.0095 -3.80646e-18 0.00224925 11.007 -1.97973e-18 0.00319373 11.0044
9.54509e-19 0.00287782 11.0016 -9.1953e-19 0.000923116 11.0002 0 -0.0122604 11.0119 0
-0.0223047 11.0115 0 -0.0359728 11.0102 0 -0.0540987 11.0081 0 -0.0776427
11.0056 0 -0.107656 11.0035 0 -0.14522 11.0028 0 -0.191346 11.0052
0 -0.246838 11.0129 0 -0.312057 11.0288 0 -0.386613 11.0568 0
-0.469004 11.1012 0 -0.556123 11.1669 0 -0.642994 11.2582 0 -0.724316
11.3749 0 -0.79582 11.5143 0 -0.852612 11.6746 0 -0.890201 11.8529
0 -0.904917 12.0449 0 -0.894161 12.246 0 -0.85319 12.4526 0
-0.790142 12.6552 0 -0.720697 12.8474 0 -0.647894 13.0294 0 -0.577708
13.2196 0 -0.5093 13.417 0 -0.439915 13.5983 0 -0.371294 13.7548
0 -0.30462 13.8668 0 -0.24047 13.8909 0 -0.177752 13.7527 0
-0.119436 13.3698 0 -0.0610848 12.5664 0 -0.0215504 10.782 0 -0.0122277
11.0111 0 -0.00512398 11.0106 8.01144e-18 -0.00046796 11.0089 0 0.00208942 11.0066
2.00854e-18 0.00299238 11.0042 5.8203e-22 0.00269505 11.0015 0 0.000849827 11.0002 0
-0.0221153 11.0104 0 -0.0356017 11.0085 0 -0.0534876 11.0056 0 -0.0767311
11.0019 0 -0.106403 10.9981 0 -0.143635 10.995 0 -0.189539 10.9941
0 -0.245099 10.9973 0 -0.310972 11.0074 0 -0.387232 11.0276 0
-0.473042 11.0622 0 -0.566204 11.1161 0 -0.662704 11.1944 0 -0.756516
11.3013 0 -0.841622 11.4355 0 -0.91354 11.5929 0 -0.96727 11.7711
0 -0.998508 11.9659 0 -1.00403 12.1726 0 -0.981903 12.3858 0
-0.927804 12.6017 0 -0.851498 12.8106 0 -0.77025 13.0062 0 -0.691611
13.2082 0 -0.614862 13.4171 0 -0.536834 13.6118 0 -0.459756 13.7887
0 -0.385098 13.9396 0 -0.313753 14.0461 0 -0.246165 14.0665 0
-0.180925 13.9264 0 -0.120962 13.5393 0 -0.0615056 12.7222 0 -0.0214131
10.9079 0 -0.0219608 11.0094 0 -0.0120239 11.0103 4.99931e-22 -0.00497068 11.0098
0 -0.000513176 11.0084 -2.11383e-18 0.00193839 11.0063 4.21525e-22 0.002798 11.0039 0
0.00251588 11.0014 0 0.000779978 11.0001 0 -0.0352258 11.007 0 -0.0528701
11.0034 0 -0.075804 10.9987 0 -0.1051 10.9933 0 -0.141924 10.9882
0 -0.187455 10.9843 0 -0.242812 10.9835 0 -0.30888 10.9882 0
-0.386099 11.0013 0 -0.474185 11.027 0 -0.571711 11.0697 0 -0.675675
11.1348 0 -0.781056 11.2274 0 -0.880724 11.3514 0 -0.968026 11.5043
0 -1.03844 11.6806 0 -1.08705 11.8768 0 -1.10991 12.0879 0
-1.10443 12.3083 0 -1.06945 12.5322 0 -1.00115 12.756 0 -0.910956
12.9694 0 -0.822983 13.1857 0 -0.736766 13.4068 0 -0.648672 13.613
0 -0.561501 13.803 0 -0.477226 13.9736 0 -0.397014 14.1178 0
-0.321472 14.2181 0 -0.250864 14.2338 0 -0.18345 14.091 0 -0.122109
13.6991 0 -0.0617666 12.8683 0 -0.0212322 11.0251 0 -0.0349125 11.0057
0 -0.0215289 11.0083 -4.43064e-18 -0.0115753 11.0093 0 -0.00482158 11.0091 0
-0.000545224 11.0078 6.43018e-18 0.00179607 11.0059 0 0.00261034 11.0037 0 0.0023404
11.0013 1.91608e-18 0.000713351 11.0001 0 -0.0522562 11.0014 0 -0.0748795 10.9958
0 -0.103788 10.9891 0 -0.140156 10.9821 0 -0.185212 10.9756 0
-0.240172 10.9713 0 -0.306093 10.9711 0 -0.383702 10.9778 0 -0.47316
10.9952 0 -0.573688 11.0276 0 -0.683165 11.08 0 -0.797673 11.1579
0 -0.911098 11.2665 0 -1.01518 11.4093 0 -1.10278 11.582 0
-1.16955 11.7777 0 -1.21084 11.9917 0 -1.22329 12.2184 0 -1.20506
12.4514 0 -1.15589 12.6847 0 -1.07249 12.9143 0 -0.974435 13.1494
0 -0.877636 13.3855 0 -0.777994 13.6041 0 -0.679039 13.8054 0
-0.583295 13.9888 0 -0.492378 14.1522 0 -0.407154 14.2888 0 -0.327895
14.382 0 -0.254666 14.3924 0 -0.185403 14.2463 0 -0.122926 13.8492
0 -0.0618931 13.0048 0 -0.0210182 11.134 0 -0.0517417 10.9997 0
-0.0341773 11.0043 0 -0.0206677 11.007 -4.84202e-18 -0.0111428 11.0083 -4.67283e-18 -0.00465333
11.0083 -9.01344e-18 -0.000564074 11.0073 0 0.00166247 11.0055 -4.1857e-18 0.00242956 11.0035
-4.03149e-18 0.00216879 11.0012 1.94038e-18 0.000649853 11.0001 0 -0.073968 10.9932 0
-0.102488 10.9854 0 -0.138382 10.9767 0 -0.182902 10.9679 0 -0.23733
10.9604 0 -0.302856 10.9558 0 -0.380427 10.9569 0 -0.470557 10.9667
0 -0.573002 10.9895 0 -0.686388 11.03 0 -0.807781 11.0938 0