%!PS-Adobe-3.0 EPSF-3.0
%%LanguageLevel: 3
%%Title: surfaceFieldValue.eps
%%Creator: Matplotlib v3.10.0, https://matplotlib.org/
%%CreationDate: Mon Feb 17 10:46:12 2025
%%Orientation: portrait
%%BoundingBox: 0 0 461 346
%%HiResBoundingBox: 0.000000 0.000000 460.800000 345.600000
%%EndComments
%%BeginProlog
/mpldict 9 dict def
mpldict begin
/_d { bind def } bind def
/m { moveto } _d
/l { lineto } _d
/r { rlineto } _d
/c { curveto } _d
/cl { closepath } _d
/ce { closepath eofill } _d
/sc { setcachedevice } _d
%!PS-Adobe-3.0 Resource-Font
%%Creator: Converted from TrueType to Type 3 by Matplotlib.
10 dict begin
/FontName /DejaVuSans def
/PaintType 0 def
/FontMatrix [0.00048828125 0 0 0.00048828125 0 0] def
/FontBBox [-2090 -948 3673 2524] def
/FontType 3 def
/Encoding [/space /parenleft /parenright /period /zero /one /two /three /four /five /six /A /K /O /T /bracketleft /bracketright /a /e /g /i /l /m /p /r /s /t /u /v] def
/CharStrings 30 dict dup begin
/.notdef 0 def
/space{651 0 0 0 0 0 sc
ce} _d
/parenleft{799 0 176 -270 635 1554 sc
635 1554 m
546 1401 479 1249 436 1099 c
393 949 371 797 371 643 c
371 489 393 336 436 185 c
480 34 546 -117 635 -270 c
475 -270 l
375 -113 300 41 250 192 c
201 343 176 494 176 643 c
176 792 201 941 250 1092 c
299 1243 374 1397 475 1554 c
635 1554 l

ce} _d
/parenright{799 0 164 -270 623 1554 sc
164 1554 m
324 1554 l
424 1397 499 1243 548 1092 c
598 941 623 792 623 643 c
623 494 598 343 548 192 c
499 41 424 -113 324 -270 c
164 -270 l
253 -117 319 34 362 185 c
406 336 428 489 428 643 c
428 797 406 949 362 1099 c
319 1249 253 1401 164 1554 c

ce} _d
/period{651 0 219 0 430 254 sc
219 254 m
430 254 l
430 0 l
219 0 l
219 254 l

ce} _d
/zero{1303 0 135 -29 1167 1520 sc
651 1360 m
547 1360 469 1309 416 1206 c
364 1104 338 950 338 745 c
338 540 364 387 416 284 c
469 182 547 131 651 131 c
756 131 834 182 886 284 c
939 387 965 540 965 745 c
965 950 939 1104 886 1206 c
834 1309 756 1360 651 1360 c

651 1520 m
818 1520 946 1454 1034 1321 c
1123 1189 1167 997 1167 745 c
1167 494 1123 302 1034 169 c
946 37 818 -29 651 -29 c
484 -29 356 37 267 169 c
179 302 135 494 135 745 c
135 997 179 1189 267 1321 c
356 1454 484 1520 651 1520 c

ce} _d
/one{1303 0 225 0 1114 1493 sc
254 170 m
584 170 l
584 1309 l
225 1237 l
225 1421 l
582 1493 l
784 1493 l
784 170 l
1114 170 l
1114 0 l
254 0 l
254 170 l

ce} _d
/two{1303 0 150 0 1098 1520 sc
393 170 m
1098 170 l
1098 0 l
150 0 l
150 170 l
227 249 331 356 463 489 c
596 623 679 709 713 748 c
778 821 823 882 848 932 c
874 983 887 1032 887 1081 c
887 1160 859 1225 803 1275 c
748 1325 675 1350 586 1350 c
523 1350 456 1339 385 1317 c
315 1295 240 1262 160 1217 c
160 1421 l
241 1454 317 1478 388 1495 c
459 1512 523 1520 582 1520 c
737 1520 860 1481 952 1404 c
1044 1327 1090 1223 1090 1094 c
1090 1033 1078 974 1055 919 c
1032 864 991 800 930 725 c
913 706 860 650 771 557 c
682 465 556 336 393 170 c

ce} _d
/three{1303 0 156 -29 1139 1520 sc
831 805 m
928 784 1003 741 1057 676 c
1112 611 1139 530 1139 434 c
1139 287 1088 173 987 92 c
886 11 742 -29 555 -29 c
492 -29 428 -23 361 -10 c
295 2 227 20 156 45 c
156 240 l
212 207 273 183 340 166 c
407 149 476 141 549 141 c
676 141 772 166 838 216 c
905 266 938 339 938 434 c
938 522 907 591 845 640 c
784 690 698 715 588 715 c
414 715 l
414 881 l
596 881 l
695 881 771 901 824 940 c
877 980 903 1037 903 1112 c
903 1189 876 1247 821 1288 c
767 1329 689 1350 588 1350 c
533 1350 473 1344 410 1332 c
347 1320 277 1301 201 1276 c
201 1456 l
278 1477 349 1493 416 1504 c
483 1515 547 1520 606 1520 c
759 1520 881 1485 970 1415 c
1059 1346 1104 1252 1104 1133 c
1104 1050 1080 980 1033 923 c
986 866 918 827 831 805 c

ce} _d
/four{1303 0 100 0 1188 1493 sc
774 1317 m
264 520 l
774 520 l
774 1317 l

721 1493 m
975 1493 l
975 520 l
1188 520 l
1188 352 l
975 352 l
975 0 l
774 0 l
774 352 l
100 352 l
100 547 l
721 1493 l

ce} _d
/five{1303 0 158 -29 1124 1493 sc
221 1493 m
1014 1493 l
1014 1323 l
406 1323 l
406 957 l
435 967 465 974 494 979 c
523 984 553 987 582 987 c
749 987 881 941 978 850 c
1075 759 1124 635 1124 479 c
1124 318 1074 193 974 104 c
874 15 733 -29 551 -29 c
488 -29 424 -24 359 -13 c
294 -2 227 14 158 35 c
158 238 l
218 205 280 181 344 165 c
408 149 476 141 547 141 c
662 141 754 171 821 232 c
888 293 922 375 922 479 c
922 583 888 665 821 726 c
754 787 662 817 547 817 c
493 817 439 811 385 799 c
332 787 277 768 221 743 c
221 1493 l

ce} _d
/six{1303 0 143 -29 1174 1520 sc
676 827 m
585 827 513 796 460 734 c
407 672 381 587 381 479 c
381 372 407 287 460 224 c
513 162 585 131 676 131 c
767 131 838 162 891 224 c
944 287 971 372 971 479 c
971 587 944 672 891 734 c
838 796 767 827 676 827 c

1077 1460 m
1077 1276 l
1026 1300 975 1318 923 1331 c
872 1344 821 1350 770 1350 c
637 1350 535 1305 464 1215 c
394 1125 354 989 344 807 c
383 865 433 909 492 940 c
551 971 617 987 688 987 c
838 987 956 941 1043 850 c
1130 759 1174 636 1174 479 c
1174 326 1129 203 1038 110 c
947 17 827 -29 676 -29 c
503 -29 371 37 280 169 c
189 302 143 494 143 745 c
143 981 199 1169 311 1309 c
423 1450 573 1520 762 1520 c
813 1520 864 1515 915 1505 c
967 1495 1021 1480 1077 1460 c

ce} _d
/A{1401 0 16 0 1384 1493 sc
700 1294 m
426 551 l
975 551 l
700 1294 l

586 1493 m
815 1493 l
1384 0 l
1174 0 l
1038 383 l
365 383 l
229 0 l
16 0 l
586 1493 l

ce} _d
/K{1343 0 201 0 1386 1493 sc
201 1493 m
403 1493 l
403 862 l
1073 1493 l
1333 1493 l
592 797 l
1386 0 l
1120 0 l
403 719 l
403 0 l
201 0 l
201 1493 l

ce} _d
/O{1612 0 115 -29 1497 1520 sc
807 1356 m
660 1356 544 1301 457 1192 c
371 1083 328 934 328 745 c
328 557 371 408 457 299 c
544 190 660 135 807 135 c
954 135 1070 190 1155 299 c
1241 408 1284 557 1284 745 c
1284 934 1241 1083 1155 1192 c
1070 1301 954 1356 807 1356 c

807 1520 m
1016 1520 1184 1450 1309 1309 c
1434 1169 1497 981 1497 745 c
1497 510 1434 322 1309 181 c
1184 41 1016 -29 807 -29 c
597 -29 429 41 303 181 c
178 321 115 509 115 745 c
115 981 178 1169 303 1309 c
429 1450 597 1520 807 1520 c

ce} _d
/T{1251 0 -6 0 1257 1493 sc
-6 1493 m
1257 1493 l
1257 1323 l
727 1323 l
727 0 l
524 0 l
524 1323 l
-6 1323 l
-6 1493 l

ce} _d
/bracketleft{799 0 176 -270 600 1556 sc
176 1556 m
600 1556 l
600 1413 l
360 1413 l
360 -127 l
600 -127 l
600 -270 l
176 -270 l
176 1556 l

ce} _d
/bracketright{799 0 199 -270 623 1556 sc
623 1556 m
623 -270 l
199 -270 l
199 -127 l
438 -127 l
438 1413 l
199 1413 l
199 1556 l
623 1556 l

ce} _d
/a{1255 0 123 -29 1069 1147 sc
702 563 m
553 563 450 546 393 512 c
336 478 307 420 307 338 c
307 273 328 221 371 182 c
414 144 473 125 547 125 c
649 125 731 161 792 233 c
854 306 885 402 885 522 c
885 563 l
702 563 l

1069 639 m
1069 0 l
885 0 l
885 170 l
843 102 791 52 728 19 c
665 -13 589 -29 498 -29 c
383 -29 292 3 224 67 c
157 132 123 218 123 326 c
123 452 165 547 249 611 c
334 675 460 707 627 707 c
885 707 l
885 725 l
885 810 857 875 801 921 c
746 968 668 991 567 991 c
503 991 441 983 380 968 c
319 953 261 930 205 899 c
205 1069 l
272 1095 338 1114 401 1127 c
464 1140 526 1147 586 1147 c
748 1147 869 1105 949 1021 c
1029 937 1069 810 1069 639 c

ce} _d
/e{1260 0 113 -29 1151 1147 sc
1151 606 m
1151 516 l
305 516 l
313 389 351 293 419 226 c
488 160 583 127 705 127 c
776 127 844 136 910 153 c
977 170 1043 196 1108 231 c
1108 57 l
1042 29 974 8 905 -7 c
836 -22 765 -29 694 -29 c
515 -29 374 23 269 127 c
165 231 113 372 113 549 c
113 732 162 878 261 985 c
360 1093 494 1147 662 1147 c
813 1147 932 1098 1019 1001 c
1107 904 1151 773 1151 606 c

967 660 m
966 761 937 841 882 901 c
827 961 755 991 664 991 c
561 991 479 962 417 904 c
356 846 320 764 311 659 c
967 660 l

ce} _d
/g{1300 0 113 -426 1114 1147 sc
930 573 m
930 706 902 810 847 883 c
792 956 715 993 616 993 c
517 993 440 956 385 883 c
330 810 303 706 303 573 c
303 440 330 337 385 264 c
440 191 517 154 616 154 c
715 154 792 191 847 264 c
902 337 930 440 930 573 c

1114 139 m
1114 -52 1072 -193 987 -286 c
902 -379 773 -426 598 -426 c
533 -426 472 -421 415 -411 c
358 -402 302 -387 248 -367 c
248 -188 l
302 -217 355 -239 408 -253 c
461 -267 514 -274 569 -274 c
690 -274 780 -242 840 -179 c
900 -116 930 -21 930 106 c
930 197 l
892 131 843 82 784 49 c
725 16 654 0 571 0 c
434 0 323 52 239 157 c
155 262 113 400 113 573 c
113 746 155 885 239 990 c
323 1095 434 1147 571 1147 c
654 1147 725 1131 784 1098 c
843 1065 892 1016 930 950 c
930 1120 l
1114 1120 l
1114 139 l

ce} _d
/i{569 0 193 0 377 1556 sc
193 1120 m
377 1120 l
377 0 l
193 0 l
193 1120 l

193 1556 m
377 1556 l
377 1323 l
193 1323 l
193 1556 l

ce} _d
/l{569 0 193 0 377 1556 sc
193 1556 m
377 1556 l
377 0 l
193 0 l
193 1556 l

ce} _d
/m{1995 0 186 0 1821 1147 sc
1065 905 m
1111 988 1166 1049 1230 1088 c
1294 1127 1369 1147 1456 1147 c
1573 1147 1663 1106 1726 1024 c
1789 943 1821 827 1821 676 c
1821 0 l
1636 0 l
1636 670 l
1636 777 1617 857 1579 909 c
1541 961 1483 987 1405 987 c
1310 987 1234 955 1179 892 c
1124 829 1096 742 1096 633 c
1096 0 l
911 0 l
911 670 l
911 778 892 858 854 909 c
816 961 757 987 678 987 c
584 987 509 955 454 891 c
399 828 371 742 371 633 c
371 0 l
186 0 l
186 1120 l
371 1120 l
371 946 l
413 1015 463 1065 522 1098 c
581 1131 650 1147 731 1147 c
812 1147 881 1126 938 1085 c
995 1044 1038 984 1065 905 c

ce} _d
/p{1300 0 186 -426 1188 1147 sc
371 168 m
371 -426 l
186 -426 l
186 1120 l
371 1120 l
371 950 l
410 1017 458 1066 517 1098 c
576 1131 647 1147 729 1147 c
865 1147 975 1093 1060 985 c
1145 877 1188 735 1188 559 c
1188 383 1145 241 1060 133 c
975 25 865 -29 729 -29 c
647 -29 576 -13 517 19 c
458 52 410 101 371 168 c

997 559 m
997 694 969 800 913 877 c
858 954 781 993 684 993 c
587 993 510 954 454 877 c
399 800 371 694 371 559 c
371 424 399 317 454 240 c
510 163 587 125 684 125 c
781 125 858 163 913 240 c
969 317 997 424 997 559 c

ce} _d
/r{842 0 186 0 842 1147 sc
842 948 m
821 960 799 969 774 974 c
750 980 723 983 694 983 c
590 983 510 949 454 881 c
399 814 371 717 371 590 c
371 0 l
186 0 l
186 1120 l
371 1120 l
371 946 l
410 1014 460 1064 522 1097 c
584 1130 659 1147 748 1147 c
761 1147 775 1146 790 1144 c
805 1143 822 1140 841 1137 c
842 948 l

ce} _d
/s{1067 0 111 -29 967 1147 sc
907 1087 m
907 913 l
855 940 801 960 745 973 c
689 986 631 993 571 993 c
480 993 411 979 365 951 c
320 923 297 881 297 825 c
297 782 313 749 346 724 c
379 700 444 677 543 655 c
606 641 l
737 613 829 573 884 522 c
939 471 967 400 967 309 c
967 205 926 123 843 62 c
761 1 648 -29 504 -29 c
444 -29 381 -23 316 -11 c
251 0 183 18 111 41 c
111 231 l
179 196 246 169 312 151 c
378 134 443 125 508 125 c
595 125 661 140 708 169 c
755 199 778 241 778 295 c
778 345 761 383 727 410 c
694 437 620 462 506 487 c
442 502 l
328 526 246 563 195 612 c
144 662 119 730 119 817 c
119 922 156 1004 231 1061 c
306 1118 412 1147 549 1147 c
617 1147 681 1142 741 1132 c
801 1122 856 1107 907 1087 c

ce} _d
/t{803 0 55 0 754 1438 sc
375 1438 m
375 1120 l
754 1120 l
754 977 l
375 977 l
375 369 l
375 278 387 219 412 193 c
437 167 488 154 565 154 c
754 154 l
754 0 l
565 0 l
423 0 325 26 271 79 c
217 132 190 229 190 369 c
190 977 l
55 977 l
55 1120 l
190 1120 l
190 1438 l
375 1438 l

ce} _d
/u{1298 0 174 -29 1112 1147 sc
174 442 m
174 1120 l
358 1120 l
358 449 l
358 343 379 263 420 210 c
461 157 523 131 606 131 c
705 131 784 163 841 226 c
899 289 928 376 928 485 c
928 1120 l
1112 1120 l
1112 0 l
928 0 l
928 172 l
883 104 831 53 772 20 c
713 -13 645 -29 567 -29 c
438 -29 341 11 274 91 c
207 171 174 288 174 442 c

637 1147 m
637 1147 l

ce} _d
/v{1212 0 61 0 1151 1120 sc
61 1120 m
256 1120 l
606 180 l
956 1120 l
1151 1120 l
731 0 l
481 0 l
61 1120 l

ce} _d
end readonly def

/BuildGlyph {
 exch begin
 CharStrings exch
 2 copy known not {pop /.notdef} if
 true 3 1 roll get exec
 end
} _d

/BuildChar {
 1 index /Encoding get exch get
 1 index /BuildGlyph get exec
} _d

FontName currentdict end definefont pop
end
%%EndProlog
mpldict begin
0 0 translate
0 0 460.8 345.6 rectclip
gsave
0 0 m
460.8 0 l
460.8 345.6 l
0 345.6 l
cl
1 setgray
fill
grestore
gsave
57.6 38.016 m
414.72 38.016 l
414.72 304.128 l
57.6 304.128 l
cl
1 setgray
fill
grestore
0.8 setlinewidth
1 setlinejoin
2 setlinecap
[] 0 setdash
0.69 setgray
gsave
57.6 38.016 357.12 266.112 rectclip
73.832727 38.016 m
73.832727 304.128 l
stroke
grestore
0 setlinecap
0 setgray
gsave
/o {
gsave
newpath
translate
0.8 setlinewidth
1 setlinejoin

0 setlinecap

0 0 m
0 -3.5 l

gsave
0 setgray
fill
grestore
stroke
grestore
} bind def
73.8327 38.016 o
grestore
/DejaVuSans 10.000 selectfont
gsave

65.8796 23.4222 translate
0 rotate
0 0 m /zero glyphshow
6.3623 0 m /period glyphshow
9.54102 0 m /zero glyphshow
grestore
2 setlinecap
0.69 setgray
gsave
57.6 38.016 357.12 266.112 rectclip
138.763636 38.016 m
138.763636 304.128 l
stroke
grestore
0 setlinecap
0 setgray
gsave
/o {
gsave
newpath
translate
0.8 setlinewidth
1 setlinejoin

0 setlinecap

0 0 m
0 -3.5 l

gsave
0 setgray
fill
grestore
stroke
grestore
} bind def
138.764 38.016 o
grestore
/DejaVuSans 10.000 selectfont
gsave

130.811 23.4222 translate
0 rotate
0 0 m /zero glyphshow
6.3623 0 m /period glyphshow
9.54102 0 m /one glyphshow
grestore
2 setlinecap
0.69 setgray
gsave
57.6 38.016 357.12 266.112 rectclip
203.694545 38.016 m
203.694545 304.128 l
stroke
grestore
0 setlinecap
0 setgray
gsave
/o {
gsave
newpath
translate
0.8 setlinewidth
1 setlinejoin

0 setlinecap

0 0 m
0 -3.5 l

gsave
0 setgray
fill
grestore
stroke
grestore
} bind def
203.695 38.016 o
grestore
/DejaVuSans 10.000 selectfont
gsave

195.741 23.4222 translate
0 rotate
0 0 m /zero glyphshow
6.3623 0 m /period glyphshow
9.54102 0 m /two glyphshow
grestore
2 setlinecap
0.69 setgray
gsave
57.6 38.016 357.12 266.112 rectclip
268.625455 38.016 m
268.625455 304.128 l
stroke
grestore
0 setlinecap
0 setgray
gsave
/o {
gsave
newpath
translate
0.8 setlinewidth
1 setlinejoin

0 setlinecap

0 0 m
0 -3.5 l

gsave
0 setgray
fill
grestore
stroke
grestore
} bind def
268.625 38.016 o
grestore
/DejaVuSans 10.000 selectfont
gsave

260.672 23.4222 translate
0 rotate
0 0 m /zero glyphshow
6.3623 0 m /period glyphshow
9.54102 0 m /three glyphshow
grestore
2 setlinecap
0.69 setgray
gsave
57.6 38.016 357.12 266.112 rectclip
333.556364 38.016 m
333.556364 304.128 l
stroke
grestore
0 setlinecap
0 setgray
gsave
/o {
gsave
newpath
translate
0.8 setlinewidth
1 setlinejoin

0 setlinecap

0 0 m
0 -3.5 l

gsave
0 setgray
fill
grestore
stroke
grestore
} bind def
333.556 38.016 o
grestore
/DejaVuSans 10.000 selectfont
gsave

325.603 23.4222 translate
0 rotate
0 0 m /zero glyphshow
6.3623 0 m /period glyphshow
9.54102 0 m /four glyphshow
grestore
2 setlinecap
0.69 setgray
gsave
57.6 38.016 357.12 266.112 rectclip
398.487273 38.016 m
398.487273 304.128 l
stroke
grestore
0 setlinecap
0 setgray
gsave
/o {
gsave
newpath
translate
0.8 setlinewidth
1 setlinejoin

0 setlinecap

0 0 m
0 -3.5 l

gsave
0 setgray
fill
grestore
stroke
grestore
} bind def
398.487 38.016 o
grestore
/DejaVuSans 10.000 selectfont
gsave

390.534 23.4222 translate
0 rotate
0 0 m /zero glyphshow
6.3623 0 m /period glyphshow
9.54102 0 m /five glyphshow
grestore
/DejaVuSans 10.000 selectfont
gsave

215.777 9.75037 translate
0 rotate
0 0 m /T glyphshow
5.8584 0 m /i glyphshow
8.63672 0 m /m glyphshow
18.3779 0 m /e glyphshow
24.5303 0 m /space glyphshow
27.709 0 m /bracketleft glyphshow
31.6104 0 m /s glyphshow
36.8203 0 m /bracketright glyphshow
grestore
2 setlinecap
0.69 setgray
gsave
57.6 38.016 357.12 266.112 rectclip
57.6 50.112 m
414.72 50.112 l
stroke
grestore
0 setlinecap
0 setgray
gsave
/o {
gsave
newpath
translate
0.8 setlinewidth
1 setlinejoin

0 setlinecap

-0 0 m
-3.5 0 l

gsave
0 setgray
fill
grestore
stroke
grestore
} bind def
57.6 50.112 o
grestore
/DejaVuSans 10.000 selectfont
gsave

31.5219 46.3151 translate
0 rotate
0 0 m /three glyphshow
6.3623 0 m /zero glyphshow
12.7246 0 m /zero glyphshow
grestore
2 setlinecap
0.69 setgray
gsave
57.6 38.016 357.12 266.112 rectclip
57.6 90.252838 m
414.72 90.252838 l
stroke
grestore
0 setlinecap
0 setgray
gsave
/o {
gsave
newpath
translate
0.8 setlinewidth
1 setlinejoin

0 setlinecap

-0 0 m
-3.5 0 l

gsave
0 setgray
fill
grestore
stroke
grestore
} bind def
57.6 90.2528 o
grestore
/DejaVuSans 10.000 selectfont
gsave

31.5219 86.456 translate
0 rotate
0 0 m /three glyphshow
6.3623 0 m /one glyphshow
12.7246 0 m /zero glyphshow
grestore
2 setlinecap
0.69 setgray
gsave
57.6 38.016 357.12 266.112 rectclip
57.6 130.393676 m
414.72 130.393676 l
stroke
grestore
0 setlinecap
0 setgray
gsave
/o {
gsave
newpath
translate
0.8 setlinewidth
1 setlinejoin

0 setlinecap

-0 0 m
-3.5 0 l

gsave
0 setgray
fill
grestore
stroke
grestore
} bind def
57.6 130.394 o
grestore
/DejaVuSans 10.000 selectfont
gsave

31.5219 126.597 translate
0 rotate
0 0 m /three glyphshow
6.3623 0 m /two glyphshow
12.7246 0 m /zero glyphshow
grestore
2 setlinecap
0.69 setgray
gsave
57.6 38.016 357.12 266.112 rectclip
57.6 170.534514 m
414.72 170.534514 l
stroke
grestore
0 setlinecap
0 setgray
gsave
/o {
gsave
newpath
translate
0.8 setlinewidth
1 setlinejoin

0 setlinecap

-0 0 m
-3.5 0 l

gsave
0 setgray
fill
grestore
stroke
grestore
} bind def
57.6 170.535 o
grestore
/DejaVuSans 10.000 selectfont
gsave

31.5219 166.738 translate
0 rotate
0 0 m /three glyphshow
6.3623 0 m /three glyphshow
12.7246 0 m /zero glyphshow
grestore
2 setlinecap
0.69 setgray
gsave
57.6 38.016 357.12 266.112 rectclip
57.6 210.675352 m
414.72 210.675352 l
stroke
grestore
0 setlinecap
0 setgray
gsave
/o {
gsave
newpath
translate
0.8 setlinewidth
1 setlinejoin

0 setlinecap

-0 0 m
-3.5 0 l

gsave
0 setgray
fill
grestore
stroke
grestore
} bind def
57.6 210.675 o
grestore
/DejaVuSans 10.000 selectfont
gsave

31.5219 206.878 translate
0 rotate
0 0 m /three glyphshow
6.3623 0 m /four glyphshow
12.7246 0 m /zero glyphshow
grestore
2 setlinecap
0.69 setgray
gsave
57.6 38.016 357.12 266.112 rectclip
57.6 250.81619 m
414.72 250.81619 l
stroke
grestore
0 setlinecap
0 setgray
gsave
/o {
gsave
newpath
translate
0.8 setlinewidth
1 setlinejoin

0 setlinecap

-0 0 m
-3.5 0 l

gsave
0 setgray
fill
grestore
stroke
grestore
} bind def
57.6 250.816 o
grestore
/DejaVuSans 10.000 selectfont
gsave

31.5219 247.019 translate
0 rotate
0 0 m /three glyphshow
6.3623 0 m /five glyphshow
12.7246 0 m /zero glyphshow
grestore
2 setlinecap
0.69 setgray
gsave
57.6 38.016 357.12 266.112 rectclip
57.6 290.957028 m
414.72 290.957028 l
stroke
grestore
0 setlinecap
0 setgray
gsave
/o {
gsave
newpath
translate
0.8 setlinewidth
1 setlinejoin

0 setlinecap

-0 0 m
-3.5 0 l

gsave
0 setgray
fill
grestore
stroke
grestore
} bind def
57.6 290.957 o
grestore
/DejaVuSans 10.000 selectfont
gsave

31.5219 287.16 translate
0 rotate
0 0 m /three glyphshow
6.3623 0 m /six glyphshow
12.7246 0 m /zero glyphshow
grestore
1.5 setlinewidth
2 setlinecap
0.122 0.467 0.706 setrgbcolor
gsave
57.6 38.016 357.12 266.112 rectclip
73.832727 50.112 m
74.500879 50.152944 l
74.807392 50.452394 l
75.097887 51.058922 l
75.315808 51.982162 l
75.617172 54.508626 l
76.125029 58.602991 l
76.416081 59.340379 l
76.865923 59.792365 l
77.241996 59.899942 l
77.843717 59.691611 l
83.924419 57.826668 l
88.877673 56.818731 l
97.320055 55.254844 l
99.564587 54.861865 l
101.032545 54.755492 l
102.409729 54.76914 l
105.587773 55.192626 l
107.862757 55.732922 l
109.867239 56.380393 l
111.252345 57.030273 l
112.406557 57.814224 l
113.325979 58.71378 l
114.089891 59.761456 l
114.853803 61.188463 l
115.61765 63.107998 l
116.381562 65.632856 l
117.221833 69.248342 l
118.138528 74.307693 l
119.284364 81.946896 l
121.194112 96.551738 l
122.951077 109.24949 l
124.249695 117.082573 l
125.548313 123.564917 l
126.92329 129.299035 l
128.527473 135.037971 l
130.590004 141.560054 l
133.340022 149.487067 l
136.853888 158.939432 l
141.437491 170.618007 l
146.249521 182.348364 l
150.909612 193.125778 l
154.958054 201.873671 l
159.006497 210.046345 l
163.131557 217.826844 l
167.333236 225.218378 l
171.305709 231.726813 l
174.589915 236.74201 l
178.257213 241.927403 l
181.38883 246.015346 l
183.069242 248.297353 l
185.606742 252.131204 l
188.389681 255.900429 l
191.249238 259.405928 l
194.109445 262.536512 l
196.969651 265.323491 l
203.771813 271.534081 l
207.559233 274.463158 l
209.955833 275.947968 l
213.111475 277.839805 l
215.086024 279.002284 l
216.835263 279.744087 l
219.072782 280.747608 l
220.591516 281.752333 l
221.807023 282.434326 l
222.869942 282.768297 l
224.249723 282.943311 l
225.241868 283.137192 l
226.080775 283.532579 l
226.996301 284.211361 l
228.36959 285.26586 l
229.132528 285.574142 l
229.972734 285.662853 l
230.965527 285.532797 l
232.187527 285.37986 l
232.799176 285.563705 l
233.486145 286.047804 l
234.40297 287.013191 l
235.243176 287.759811 l
235.854175 288.032768 l
236.465825 288.077726 l
237.229412 287.889466 l
238.298824 287.352783 l
239.13903 287.006367 l
239.597442 287.013994 l
240.055855 287.238381 l
240.590885 287.757001 l
241.50706 289.057162 l
242.194679 289.807796 l
242.729709 290.086775 l
243.264091 290.115676 l
243.875091 289.911761 l
244.715297 289.360226 l
246.396358 288.150381 l
246.85477 288.173663 l
247.236564 288.419726 l
247.770945 289.078437 l
249.2228 291.248852 l
249.681213 291.473641 l
250.138975 291.458789 l
250.674006 291.20831 l
251.437594 290.568064 l
252.507006 289.345775 l
253.347861 288.525296 l
253.805624 288.371557 l
254.188067 288.493987 l
254.569861 288.867698 l
255.028273 289.614719 l
256.097685 291.580014 l
256.556097 291.958141 l
256.937891 292.031197 l
257.396303 291.887493 l
258.007303 291.419852 l
258.847509 290.47855 l
260.757127 288.17286 l
261.13957 288.094585 l
261.521364 288.282043 l
261.903158 288.744867 l
262.438188 289.817029 l
263.195932 291.312275 l
263.6485 291.749409 l
264.026398 291.838521 l
264.486758 291.679162 l
265.099706 291.149303 l
266.019777 289.992845 l
268.033934 287.270494 l
268.40404 287.187804 l
268.702073 287.317057 l
269.083867 287.754592 l
269.542279 288.671008 l
270.451961 290.674437 l
270.90388 291.144085 l
271.27983 291.239218 l
271.656429 291.120402 l
272.183019 290.694909 l
273.010888 289.680148 l
274.215357 287.812395 l
275.118545 286.546754 l
275.576958 286.258543 l
275.882133 286.281825 l
276.187958 286.503804 l
276.569751 287.064571 l
277.104782 288.33824 l
277.783959 289.837099 l
278.23458 290.332437 l
278.60988 290.436803 l
278.985181 290.318388 l
279.510472 289.885669 l
280.335744 288.850036 l
281.461646 287.08143 l
282.451842 285.609466 l
282.910255 285.266262 l
283.216079 285.248198 l
283.521254 285.428832 l
283.903048 285.948656 l
284.36146 287.010381 l
285.271142 289.150691 l
285.718516 289.624754 l
286.09122 289.712261 l
286.538594 289.536846 l
287.135309 288.986113 l
288.104727 287.704416 l
290.32017 284.594304 l
290.701964 284.532086 l
291.007788 284.703889 l
291.389582 285.216889 l
291.847994 286.274198 l
292.764169 288.48917 l
293.222582 289.004979 l
293.605025 289.11055 l
293.986818 288.987719 l
294.5212 288.552592 l
295.361406 287.528599 l
296.507436 285.791705 l
297.559317 284.266353 l
298.010587 283.966501 l
298.310568 283.976537 l
298.611198 284.184868 l
298.987148 284.736001 l
299.437768 285.826628 l
300.339658 288.089768 l
300.790279 288.644113 l
301.167528 288.784606 l
301.549321 288.693888 l
302.083703 288.298501 l
302.924558 287.327092 l
304.069939 285.655226 l
305.191296 284.030727 l
305.639969 283.732882 l
305.9393 283.741311 l
306.237982 283.947635 l
306.611984 284.493952 l
307.060657 285.566917 l
307.965794 287.868592 l
308.424206 288.460268 l
308.806 288.624043 l
309.188443 288.552994 l
309.722824 288.181289 l
310.487061 287.334318 l
311.632442 285.704198 l
312.892102 283.87779 l
313.336229 283.612459 l
313.632963 283.643368 l
313.929048 283.871769 l
314.306297 284.452206 l
314.764709 285.581769 l
315.681534 287.928001 l
316.139297 288.51767 l
316.52174 288.68305 l
316.903533 288.618423 l
317.437915 288.264381 l
318.202152 287.453135 l
319.271564 285.994417 l
320.645502 284.029121 l
321.098719 283.793896 l
321.403895 283.858523 l
321.709719 284.135093 l
322.092162 284.771325 l
322.627193 286.163811 l
323.387534 288.059663 l
323.837505 288.66017 l
324.212806 288.845219 l
324.588106 288.803071 l
325.112748 288.477529 l
325.86335 287.693177 l
326.913282 286.252924 l
328.346957 284.180452 l
328.799525 283.930375 l
329.102103 283.982156 l
329.404032 284.241065 l
329.8566 285.01217 l
330.461107 286.652325 l
331.140285 288.33262 l
331.593502 288.938747 l
331.970751 289.127008 l
332.348649 289.088874 l
332.876537 288.772564 l
333.632982 288.00748 l
334.625776 286.695677 l
336.208791 284.47629 l
336.584741 284.306093 l
336.886021 284.372325 l
337.1873 284.646889 l
337.639219 285.435255 l
338.317098 287.281332 l
338.919657 288.691881 l
339.371576 289.261078 l
339.748175 289.425254 l
340.126073 289.369057 l
340.660454 289.027057 l
341.424691 288.229458 l
342.417485 286.875107 l
343.917389 284.723558 l
344.292689 284.529276 l
344.59267 284.571424 l
344.892651 284.819494 l
345.342622 285.571734 l
345.942584 287.186599 l
346.619164 288.887367 l
347.077576 289.526007 l
347.45937 289.732733 l
347.841164 289.70624 l
348.299576 289.456564 l
348.987194 288.806684 l
349.979988 287.548268 l
351.846751 284.970022 l
352.218156 284.882917 l
352.51554 285.027022 l
352.886945 285.49948 l
353.341461 286.484135 l
354.486842 289.365043 l
354.945254 289.888479 l
355.327048 290.015324 l
355.78546 289.891289 l
356.320491 289.489078 l
357.160697 288.551789 l
358.149595 287.110733 l
359.311209 285.368621 l
359.755336 285.065156 l
360.059862 285.073586 l
360.365687 285.293558 l
360.74813 285.869579 l
361.206542 286.977466 l
362.199985 289.520789 l
362.659046 290.098014 l
363.04084 290.261789 l
363.423283 290.203986 l
363.958314 289.864796 l
364.722551 289.078437 l
365.715994 287.730106 l
367.229533 285.548452 l
367.607431 285.356177 l
367.90936 285.407156 l
368.211288 285.670079 l
368.664506 286.448409 l
369.343683 288.288867 l
370.02351 289.831881 l
370.476079 290.33324 l
370.853976 290.45005 l
371.307194 290.320796 l
371.911052 289.843522 l
372.820734 288.774972 l
373.883653 287.14124 l
374.86346 285.721057 l
375.315379 285.433248 l
375.616659 285.460142 l
375.918587 285.697374 l
376.295187 286.287846 l
376.747106 287.403761 l
377.726913 289.90293 l
378.178832 290.46731 l
378.556081 290.628275 l
379.008 290.539162 l
379.543031 290.164648 l
380.383237 289.251846 l
381.373433 287.83086 l
382.649325 285.92417 l
383.099297 285.642381 l
383.399927 285.674494 l
383.699907 285.916945 l
384.075208 286.509423 l
384.600499 287.837282 l
385.425771 289.929423 l
385.882885 290.541169 l
386.264678 290.72943 l
386.647121 290.685676 l
387.181503 290.352507 l
387.94574 289.552902 l
388.938533 288.17005 l
390.504667 285.842684 l
390.876721 285.654022 l
391.174754 285.706205 l
391.472787 285.968726 l
391.919511 286.741438 l
392.605182 288.617219 l
393.216182 290.073529 l
393.674594 290.662395 l
394.056387 290.832993 l
394.438831 290.778402 l
394.973212 290.439613 l
395.737449 289.64643 l
396.730242 288.279233 l
398.341178 285.937818 l
398.487273 285.850712 l
398.487273 285.850712 l
stroke
grestore
0.8 setlinewidth
0 setlinejoin
0 setgray
gsave
57.6 38.016 m
57.6 304.128 l
stroke
grestore
gsave
414.72 38.016 m
414.72 304.128 l
stroke
grestore
gsave
57.6 38.016 m
414.72 38.016 l
stroke
grestore
gsave
57.6 304.128 m
414.72 304.128 l
stroke
grestore
/DejaVuSans 12.000 selectfont
gsave

154.879 310.128 translate
0 rotate
0 0 m /O glyphshow
9.44531 0 m /u glyphshow
17.0508 0 m /t glyphshow
21.7559 0 m /l glyphshow
25.0898 0 m /e glyphshow
32.4727 0 m /t glyphshow
37.1777 0 m /A glyphshow
44.6367 0 m /v glyphshow
51.7383 0 m /e glyphshow
59.1211 0 m /r glyphshow
64.0547 0 m /a glyphshow
71.4082 0 m /g glyphshow
79.0254 0 m /e glyphshow
86.4082 0 m /T glyphshow
91.7383 0 m /e glyphshow
99.1211 0 m /m glyphshow
110.811 0 m /p glyphshow
118.428 0 m /e glyphshow
125.811 0 m /r glyphshow
130.744 0 m /a glyphshow
138.098 0 m /t glyphshow
142.803 0 m /u glyphshow
150.408 0 m /r glyphshow
155.092 0 m /e glyphshow
grestore
1 setlinewidth
0 setlinecap
0.8 setgray
gsave
64.6 281.456125 m
169.021875 281.456125 l
170.355208 281.456125 171.021875 282.122792 171.021875 283.456125 c
171.021875 297.128 l
171.021875 298.461333 170.355208 299.128 169.021875 299.128 c
64.6 299.128 l
63.266667 299.128 62.6 298.461333 62.6 297.128 c
62.6 283.456125 l
62.6 282.122792 63.266667 281.456125 64.6 281.456125 c
cl
gsave
1 setgray
fill
grestore
stroke
grestore
1.5 setlinewidth
1 setlinejoin
2 setlinecap
0.122 0.467 0.706 setrgbcolor
gsave
66.6 291.03425 m
76.6 291.03425 l
86.6 291.03425 l
stroke
grestore
0 setgray
/DejaVuSans 10.000 selectfont
gsave

94.6 287.534 translate
0 rotate
0 0 m /a glyphshow
6.12793 0 m /v glyphshow
12.0459 0 m /e glyphshow
18.1982 0 m /r glyphshow
22.3096 0 m /a glyphshow
28.4375 0 m /g glyphshow
34.7852 0 m /e glyphshow
40.9375 0 m /parenleft glyphshow
44.8389 0 m /T glyphshow
50.9473 0 m /parenright glyphshow
54.8486 0 m /space glyphshow
58.0273 0 m /bracketleft glyphshow
61.9287 0 m /K glyphshow
68.4863 0 m /bracketright glyphshow
grestore

end
showpage
