#           x             T
    -0.118947       349.089
    -0.118121       349.103
    -0.117174       349.118
    -0.116087        349.13
     -0.11484       349.135
    -0.113408       349.136
    -0.111764       349.134
    -0.109877       349.129
    -0.107712       349.124
    -0.105227       349.117
    -0.102374       349.107
   -0.0990995       349.096
   -0.0953416       349.083
   -0.0914285        349.07
   -0.0876191       349.061
   -0.0838095       349.061
        -0.08       349.081
   -0.0761904       349.143
   -0.0723809       349.291
   -0.0685715       349.611
   -0.0649271       350.236
    -0.061624       351.331
    -0.058655       353.081
   -0.0559862       355.638
   -0.0535874       359.042
   -0.0514313       363.175
   -0.0494932       367.792
   -0.0477512       372.562
   -0.0461853       377.148
   -0.0447779       381.268
   -0.0435128       384.735
   -0.0423757       387.472
   -0.0413536       389.506
   -0.0404349       391.001
     -0.03925       392.151
     -0.03775       392.574
     -0.03625       392.002
     -0.03475       390.559
     -0.03325        388.58
     -0.03175       386.422
     -0.03025       384.295
     -0.02875       382.282
     -0.02725       380.395
     -0.02575       378.639
   -0.0243994       377.085
   -0.0231362       375.686
    -0.021743       374.213
   -0.0202065        372.61
   -0.0189203        371.33
   -0.0180315       370.481
   -0.0166427       369.222
   -0.0145812       367.483
    -0.012414       365.866
   -0.0110231       364.954
   -0.0100402       364.353
  -0.00847254       363.474
  -0.00677747       362.688
  -0.00524316       362.121
  -0.00385435       361.724
  -0.00288618        361.51
  -0.00228892       361.404
  -0.00133333       361.295
            0       361.234
   0.00133333       361.281
     0.002289       361.382
   0.00288966       361.485
   0.00386381       361.693
   0.00525697       362.084
   0.00679351       362.643
    0.0084882       363.417
    0.0100473       364.281
    0.0110276       364.872
    0.0124188       365.776
    0.0145859       367.373
    0.0166548       369.102
    0.0180384       370.346
    0.0189282       371.191
    0.0202225       372.471
    0.0217568       374.063
    0.0231456       375.528
    0.0244027       376.922
      0.02575       378.476
      0.02725       380.237
      0.02875       382.134
      0.03025        384.16
      0.03175       386.303
      0.03325       388.482
      0.03475       390.488
      0.03625       391.968
      0.03775       392.576
      0.03925       392.183
    0.0404349       391.054
    0.0413536       389.571
    0.0423757       387.545
    0.0435128       384.812
    0.0447779       381.345
    0.0461853       377.219
    0.0477511       372.624
    0.0494932       367.842
    0.0514312       363.212
    0.0535874       359.067
    0.0559862       355.654
    0.0586549        353.09
     0.061624       351.336
    0.0649271       350.239
    0.0685714       349.612
    0.0723809       349.292
    0.0761904       349.143
         0.08       349.081
    0.0838095       349.061
     0.087619       349.061
    0.0914285       349.071
    0.0953419       349.084
    0.0991002       349.097
     0.102374       349.108
     0.105227       349.117
     0.107713       349.124
     0.109878        349.13
     0.111765       349.134
     0.113408       349.136
      0.11484       349.135
     0.116088        349.13
     0.117175       349.118
     0.118122       349.103
     0.118947       349.089
     0.119665       349.081
