#           x             T
    -0.118947       349.903
    -0.118121       349.898
    -0.117174       349.892
    -0.116087       349.885
     -0.11484        349.88
    -0.113408       349.877
    -0.111764       349.875
    -0.109877       349.873
    -0.107712       349.872
    -0.105227       349.871
    -0.102374        349.87
   -0.0990995        349.87
   -0.0953416        349.87
   -0.0914285       349.873
   -0.0876191        349.88
   -0.0838095       349.895
        -0.08       349.927
   -0.0761904       349.992
   -0.0723809       350.121
   -0.0685715       350.374
   -0.0649271       350.841
    -0.061624       351.627
    -0.058655       352.856
   -0.0559862        354.65
   -0.0535874        357.06
   -0.0514313       360.036
   -0.0494932       363.424
   -0.0477512       367.025
   -0.0461853       370.637
   -0.0447779       374.069
   -0.0435128        377.19
   -0.0423757       379.935
   -0.0413536       382.302
   -0.0404349       384.465
     -0.03925       386.876
     -0.03775        389.41
     -0.03625       391.601
     -0.03475       393.363
     -0.03325       394.736
     -0.03175       395.751
     -0.03025       396.428
     -0.02875       396.816
     -0.02725       397.003
     -0.02575       397.071
   -0.0243994       397.106
   -0.0231362       397.128
    -0.021743       397.078
   -0.0202065       396.923
   -0.0189203       396.858
   -0.0180315       396.836
   -0.0166427       396.823
   -0.0145812       396.824
    -0.012414       396.674
   -0.0110231       396.629
   -0.0100402       396.611
  -0.00847254       396.601
  -0.00677747       396.594
  -0.00524316       396.527
  -0.00385435       396.472
  -0.00288618       396.434
  -0.00228892       396.407
  -0.00133333       396.371
            0       396.321
   0.00133333       396.261
     0.002289       396.211
   0.00288966       396.179
   0.00386381        396.13
   0.00525697       396.062
   0.00679351       395.989
    0.0084882       395.903
    0.0100473        395.84
    0.0110276       395.807
    0.0124188       395.776
    0.0145859       395.748
    0.0166548       395.748
    0.0180384       395.763
    0.0189282       395.778
    0.0202225       395.807
    0.0217568       395.852
    0.0231456       395.899
    0.0244027       395.949
      0.02575       396.013
      0.02725       396.089
      0.02875        396.18
      0.03025       396.285
      0.03175       396.407
      0.03325       396.547
      0.03475         396.7
      0.03625       396.856
      0.03775       396.984
      0.03925       397.034
    0.0404349       396.963
    0.0413536       396.751
    0.0423757       396.281
    0.0435128       395.343
    0.0447779       393.608
    0.0461853       390.665
    0.0477511       386.213
    0.0494932       380.358
    0.0514312       373.743
    0.0535874       367.262
    0.0559862       361.612
    0.0586549       357.178
     0.061624       354.065
    0.0649271       352.101
    0.0685714       350.978
    0.0723809       350.399
    0.0761904        350.12
         0.08       349.985
    0.0838095        349.92
     0.087619       349.889
    0.0914285       349.874
    0.0953419       349.867
    0.0991002       349.864
     0.102374       349.863
     0.105227       349.864
     0.107713       349.864
     0.109878       349.866
     0.111765       349.867
     0.113408       349.869
      0.11484       349.872
     0.116088       349.877
     0.117175       349.883
     0.118122        349.89
     0.118947       349.895
     0.119665       349.899
