#           x             T
    -0.118947       349.886
    -0.118121       349.882
    -0.117174       349.876
    -0.116087        349.87
     -0.11484       349.866
    -0.113408       349.863
    -0.111764       349.861
    -0.109877       349.859
    -0.107712       349.858
    -0.105227       349.856
    -0.102374       349.855
   -0.0990995       349.854
   -0.0953416       349.854
   -0.0914285       349.856
   -0.0876191       349.862
   -0.0838095       349.877
        -0.08       349.911
   -0.0761904       349.982
   -0.0723809       350.128
   -0.0685715       350.423
   -0.0649271       350.978
    -0.061624       351.929
    -0.058655       353.452
   -0.0559862       355.698
   -0.0535874       358.731
   -0.0514313       362.466
   -0.0494932       366.687
   -0.0477512       371.113
   -0.0461853       375.438
   -0.0447779       379.406
   -0.0435128       382.859
   -0.0423757       385.751
   -0.0413536       388.118
   -0.0404349       390.168
     -0.03925       392.325
     -0.03775       394.422
     -0.03625       396.055
     -0.03475       397.172
     -0.03325       397.823
     -0.03175        398.15
     -0.03025       398.294
     -0.02875       398.347
     -0.02725       398.353
     -0.02575       398.337
   -0.0243994       398.316
   -0.0231362       398.299
    -0.021743       398.272
   -0.0202065       398.216
   -0.0189203       398.177
   -0.0180315       398.152
   -0.0166427       398.113
   -0.0145812       398.041
    -0.012414       397.802
   -0.0110231       397.637
   -0.0100402       397.511
  -0.00847254         397.3
  -0.00677747       397.071
  -0.00524316       396.824
  -0.00385435       396.643
  -0.00288618       396.538
  -0.00228892       396.479
  -0.00133333       396.409
            0       396.333
   0.00133333       396.274
     0.002289       396.241
   0.00288966       396.227
   0.00386381        396.21
   0.00525697       396.197
   0.00679351       396.195
    0.0084882       396.199
    0.0100473       396.221
    0.0110276       396.241
    0.0124188       396.281
    0.0145859       396.363
    0.0166548       396.464
    0.0180384       396.545
    0.0189282       396.602
    0.0202225       396.692
    0.0217568       396.809
    0.0231456       396.921
    0.0244027        397.03
      0.02575       397.146
      0.02725       397.266
      0.02875       397.374
      0.03025       397.455
      0.03175       397.488
      0.03325       397.445
      0.03475       397.281
      0.03625       396.929
      0.03775       396.302
      0.03925       395.341
    0.0404349        394.17
    0.0413536       392.846
    0.0423757       391.052
    0.0435128       388.545
    0.0447779       385.183
    0.0461853       380.935
    0.0477511       375.978
    0.0494932         370.7
    0.0514312       365.595
    0.0535874       361.074
    0.0559862       357.375
    0.0586549       354.578
     0.061624       352.633
    0.0649271       351.388
    0.0685714       350.656
    0.0723809       350.263
    0.0761904       350.065
         0.08       349.966
    0.0838095       349.916
     0.087619       349.891
    0.0914285       349.879
    0.0953419       349.872
    0.0991002       349.869
     0.102374       349.869
     0.105227       349.868
     0.107713       349.869
     0.109878        349.87
     0.111765       349.871
     0.113408       349.873
      0.11484       349.876
     0.116088        349.88
     0.117175       349.885
     0.118122       349.891
     0.118947       349.896
     0.119665       349.899
