# vtk DataFile Version 2.0
sampleSurface
ASCII
DATASET POLYDATA
POINTS 15978 float
-4.26165e-19 0.000133477 0 -4.18079e-19 -0.000798814 0 -4.33681e-19 0.001 0 -4.09379e-19 -0.00180187
0 -0.00181681 0.000361473 0 0.00181681 0.000361473 0 -0.00181396 -0.000575145 0
0.00181396 -0.000575145 0 -0.00181945 0.00123202 0 0.00181945 0.00123202 0 -0.00181089
-0.00158285 0 0.00181089 -0.00158285 0 -4.00018e-19 -0.00288105 0 -0.00180759 -0.00266704
0 0.00180759 -0.00266704 0 -0.00351565 8.15481e-05 0 0.00351565 8.15481e-05 0
-0.00351186 -0.000939823 0 0.00351186 -0.000939823 0 -0.00351918 0.00103087 0 0.00351918
0.00103087 0 -0.00352245 0.00191322 0 0.00352245 0.00191322 0 -3.89947e-19 -0.00404214
0 -0.00350777 -0.00203871 0 0.00350777 -0.00203871 0 -0.00180405 -0.00383352 0
0.00180405 -0.00383352 0 -0.00350338 -0.00322101 0 0.00350338 -0.00322101 0 -0.005
8.60602e-05 0 0.005 8.60602e-05 0 -0.005 -0.00103629 0 0.005 -0.00103629
0 -0.005 0.00112923 0 0.005 0.00112923 0 -3.79112e-19 -0.00529135 0
-0.00180023 -0.00508853 0 0.00180023 -0.00508853 0 -0.005 0.00209882 0 0.005
0.00209882 0 -0.005 -0.00224382 0 0.005 -0.00224382 0 -0.00349866 -0.00449304
0 0.00349866 -0.00449304 0 -0.005 0.003 0 0.005 0.003 0
-0.005 -0.003543 0 0.005 -0.003543 0 -0.00637208 2.82617e-05 0 0.00639053
4.25732e-05 0 -0.00637208 0.00114892 0 -0.00637208 -0.00117745 0 0.00639053 -0.00116311
0 0.00639053 0.00116321 0 -3.67455e-19 -0.00663538 0 -0.00179612 -0.00643879 0
0.00179612 -0.00643879 0 -0.00637208 0.00219052 0 0.00639053 0.00220479 0 -0.00349357
-0.00586162 0 0.00349357 -0.00586162 0 -0.00637208 -0.00247467 0 0.00639053 -0.00246031
0 -0.005 -0.00494079 0 0.005 -0.00494079 0 -0.00637208 0.00315864 0
0.00639053 0.00317289 0 -0.00637208 -0.00387036 0 0.00639053 -0.00385597 0 -0.00637208
0.00405846 0 0.00639053 0.00407269 0 -0.00778421 -7.99569e-05 0 0.00781802 -5.3679e-05
0 -0.00778421 0.00112388 0 0.00781802 0.00115011 0 -0.00778421 -0.00137517 0
0.00781802 -0.00134884 0 -3.54912e-19 -0.00808142 0 -0.0017917 -0.00789154 0 0.0017917
-0.00789154 0 -0.00778421 0.0022428 0 -0.0034881 -0.00733407 0 0.0034881 -0.00733407
0 0.00781802 0.00226899 0 -0.005 -0.00644467 0 0.005 -0.00644467 0
-0.00778421 -0.00276868 0 0.00781802 -0.0027423 0 -0.00637208 -0.00537197 0 0.00639053
-0.00535755 0 -0.00778421 0.00328278 0 0.00781802 0.00330893 0 -0.00778421 0.00424939
0 -0.00778421 -0.00426796 0 0.00781802 -0.00424152 0 0.00781802 0.00427551 0
-0.00923755 -0.000243565 0 0.00928347 -0.000207818 0 -0.00923755 0.00104957 0 -0.00778421
0.00514782 0 0.00928347 0.00108525 0 0.00781802 0.0051739 0 -0.00923755 -0.00163485
0 0.00928347 -0.00159903 0 -0.00637208 -0.00698755 0 0.00639053 -0.0069731 0
-0.005 -0.0080627 0 0.005 -0.0080627 0 -0.00923755 0.00225148 0 0.00928347
0.0022871 0 -0.00348222 -0.00891827 0 0.00348222 -0.00891827 0 -0.00178695 -0.00945455
0 0.00178695 -0.00945455 0 -3.41418e-19 -0.00963721 0 -0.00923755 -0.00313172 0
-0.00778421 -0.00588103 0 0.00781802 -0.00585453 0 0.00928347 -0.00309583 0 -0.00923755
0.0033686 0 0.00928347 0.00340416 0 -0.00923755 0.00440692 0 0.00928347 0.00444243
0 -0.00923755 -0.00474221 0 0.00928347 -0.00470623 0 -0.00923755 0.00537198 0
-0.0107333 -0.000467921 0 0.00928347 0.00540745 0 -0.0107333 0.000921062 0 0.0107879
-0.000425364 0 0.00639053 -0.00871127 0 -0.00637208 -0.00872575 0 0.0107879 0.000963535
0 -0.00778421 -0.00761653 0 0.00781802 -0.00758997 0 -0.0107333 -0.00196233 0
0.0107879 -0.00191968 0 -0.0107333 0.00221206 0 -0.005 -0.00980352 0 0.005
-0.00980352 0 0.0107879 0.00225445 0 -0.00923755 0.00626897 0 -0.00347589 -0.0106227
0 0.00347589 -0.0106227 0 0.00928347 0.00630439 0 -0.0107333 0.00341198 0
-0.00178183 -0.0111362 0 0.00178183 -0.0111362 0 -0.00923755 -0.00647493 0 0.00928347
-0.00643887 0 -3.26899e-19 -0.0113111 0 -0.0107333 -0.00357015 0 0.0107879 0.00345431
0 0.0107879 -0.00352741 0 -0.0107333 0.00452726 0 0.0107879 0.00456952 0
-0.0107333 -0.00530001 0 0.0107879 -0.00525717 0 -0.0107333 0.00556386 0 0.0107879
0.00560606 0 -0.000743369 0.0122055 0 0.000743369 0.0122055 0 -0.00778421 -0.00948375
0 0.00781802 -0.00945713 0 -0.0122727 0.000733061 0 -0.0122727 -0.000758799 0
0.0123323 -0.000712262 0 0.0123323 0.0007795 0 0.00639053 -0.0105814 0 -0.00637208
-0.0105959 0 -0.00923755 -0.00833916 0 -0.0122727 0.00211968 0 0.00928347 -0.00830301
0 -0.0122727 -0.00236389 0 0.0123323 0.00216603 0 0.0123323 -0.00231725 0
-0.0107333 0.00652734 0 0.0107879 0.00656947 0 -0.005 -0.0116765 0 0.005
-0.0116765 0 -0.0122727 0.00340848 0 0.0123323 0.00345474 0 -0.000741126 0.0128136
0 0.000741126 0.0128136 0 -0.0107333 -0.00716117 0 0.0107879 -0.00711821 0
-0.00346908 -0.0124565 0 0.00346908 -0.0124565 0 -0.0122727 -0.00409081 0 0.0123323
-0.00404405 0 -0.0107333 0.00742284 0 -0.00177633 -0.0129455 0 0.00177633 -0.0129455
0 -0.0122727 0.00460636 0 -3.11279e-19 -0.013112 0 0.0107879 0.00746492 0
-0.002 0.013 0 0.002 0.013 0 0.0123323 0.00465255 0 -0.0007387
0.0134712 0 0.0007387 0.0134712 0 -0.0122727 0.00571974 0 0.0123323 0.00576585
0 -0.0122727 -0.00594879 0 0.0123323 -0.00590191 0 -0.002 0.0135849 0
0.002 0.0135849 0 -0.0138571 0.000479853 0 -0.00923755 -0.0103449 0 0.00928347
-0.0103086 0 0.00781802 -0.011466 0 -0.00778421 -0.0114927 0 -0.0138571 -0.00112242
0 0.0139177 0.000527252 0 0.0139177 -0.00107491 0 -0.0138571 0.0019691 0
-0.0122727 0.00675458 0 0.0139177 0.00201639 0 0.0123323 0.00680062 0 -0.0107333
-0.00916358 0 0.00639053 -0.0125934 0 0.0107879 -0.0091205 0 -0.00637208 -0.012608
0 -0.0138571 -0.0028463 0 0.0139177 -0.00279868 0 -0.000736077 0.0141824 0
0.000736077 0.0141824 0 -0.00319452 0.0138829 0 0.00320133 0.0138879 0 -0.0138571
0.00335328 0 0.0139177 0.00340049 0 -0.002 0.0142174 0 0.002 0.0142174
0 -0.0122727 0.00771641 0 0.0123323 0.00776239 0 -0.005 -0.0136916 0
0.005 -0.0136916 0 -0.0138571 0.00463982 0 -0.0122727 -0.0079478 0 -0.0138571
-0.00470103 0 0.0123323 -0.00790078 0 0.0139177 -0.00465328 0 0.0139177 0.00468694
0 -0.00319452 0.0144678 0 0.00320133 0.0144728 0 -0.00346175 -0.0144295 0
0.00346175 -0.0144295 0 -0.00073324 0.0149515 0 0.00073324 0.0149515 0 -0.0122727
0.00861039 0 -0.00177041 -0.0148921 0 0.00177041 -0.0148921 0 -0.002 0.0149014
0 0.002 0.0149014 0 -0.0138571 0.0058356 0 -2.94473e-19 -0.0150496 0
0.0123323 0.00865631 0 0.0139177 0.00588264 0 -0.0138571 -0.00669653 0 0.0139177
-0.00664864 0 -0.00319452 0.0151003 0 0.00320133 0.0151053 0 -0.0154877 0.000155282
0 -0.0138571 0.00694702 0 -0.00451419 0.0148583 0 0.0045263 0.0148673 0
0.00928347 -0.0124665 0 -0.00923755 -0.0125028 0 0.0155453 0.000200444 0 -0.0154877
-0.00156548 0 0.0139177 0.00699399 0 -0.0154877 0.00175466 0 -0.0107333 -0.011318
0 0.0107879 -0.0112748 0 0.0155453 -0.00152021 0 0.0155453 0.00179972 0
0.00781802 -0.0136273 0 -0.00778421 -0.0136541 0 -0.002 0.0156411 0 0.002
0.0156411 0 -0.000730172 0.0157833 0 0.000730172 0.0157833 0 -0.0154877 0.0032412
0 -0.0154877 -0.00341685 0 0.0155453 0.00328617 0 -0.0122727 -0.0100985 0
0.0155453 -0.00337146 0 0.0123323 -0.0100514 0 -0.0138571 0.00798004 0 0.0139177
0.00802694 0 0.00639053 -0.0147581 0 -0.00637208 -0.0147727 0 -0.00451419 0.0154432
0 0.0045263 0.0154521 0 -0.00319452 0.0157843 0 0.00320133 0.0157893 0
-0.0154877 0.00462288 0 0.0155453 0.00466776 0 -0.0154877 -0.00540874 0 -0.0138571
-0.00884348 0 0.0155453 -0.00536322 0 0.0139177 -0.00879545 0 -0.0138571 0.00894019
0 -0.002 0.0164411 0 0.002 0.0164411 0 0.0139177 0.00898702 0
-0.0154877 0.00590709 0 -0.005 -0.0158596 0 0.005 -0.0158596 0 0.0155453
0.00595189 0 -0.00451419 0.0160757 0 -0.000726854 0.0166828 0 0.000726854 0.0166828
0 0.0045263 0.0160846 0 -0.00319452 0.016524 0 0.00320133 0.016529 0
-0.00345386 -0.0165523 0 0.00345386 -0.0165523 0 -0.0138571 0.0098326 0 -0.00597213
0.0159359 0 0.00598764 0.0159474 0 -0.0154877 0.00710071 0 0.0139177 0.00987937
0 -0.00176404 -0.0169864 0 0.00176404 -0.0169864 0 0.0155453 0.00714543 0
-2.76391e-19 -0.0171343 0 -0.0171658 -0.000247278 0 0.0172162 -0.000207752 0 -0.0171658
0.00147028 0 -0.0154877 -0.0075518 0 0.0155453 -0.00750615 0 0.0172162 0.00150971
0 -0.0171658 -0.00209519 0 0.0172162 -0.00205556 0 0.0107879 -0.0135925 0
-0.0107333 -0.0136359 0 -0.00451419 0.0167597 0 0.0045263 0.0167686 0 -0.002
0.0173062 0 0.002 0.0173062 0 -0.0171658 0.00306667 0 -0.0122727 -0.0124125
0 0.00928347 -0.0147881 0 0.0123323 -0.0123652 0 -0.00923755 -0.0148246 0
0.0172162 0.00310601 0 -0.0154877 0.00821012 0 -0.00597213 0.0165208 0 0.00598764
0.0165323 0 0.0155453 0.00825477 0 -0.00319452 0.017324 0 0.00320133 0.017329
0 -0.0171658 -0.00408336 0 -0.000723266 0.0176555 0 0.000723266 0.0176555 0
0.0172162 -0.00404362 0 -0.0171658 0.00455044 0 0.00781802 -0.0159527 0 -0.00778421
-0.0159796 0 -0.0138571 -0.0111534 0 0.0139177 -0.0111052 0 0.0172162 0.0045897
0 -0.0154877 0.00924127 0 -0.00451419 0.0174994 0 0.0045263 0.0175084 0
0.0155453 0.00928585 0 -0.0171658 0.00592954 0 -0.00597213 0.0171533 0 0.00598764
0.0171648 0 0.0172162 0.00596872 0 0.00639053 -0.0170872 0 -0.00637208 -0.0171018
0 -0.0171658 -0.00622243 0 0.0172162 -0.00618257 0 -0.002 0.0182418 0
0.002 0.0182418 0 -0.0154877 -0.00985753 0 0.0155453 -0.00981172 0 -0.00319452
0.0181891 0 0.00320133 0.0181941 0 -0.0154877 0.0101997 0 0.0155453 0.0102442
0 -0.0171658 0.00721136 0 0.0172162 0.00725047 0 -0.000719385 0.0187075 0
0.000719385 0.0187075 0 -0.00758282 0.0171264 0 0.00759938 0.0171387 0 -0.00597213
0.0178373 0 0.00598764 0.0178488 0 -0.00451419 0.0182994 0 0.0045263 0.0183083
0 -0.005 -0.0181922 0 0.005 -0.0181922 0 -0.018893 -0.00073496 0
-0.018893 0.0011094 0 0.0189314 -0.000704684 0 0.0189314 0.0011396 0 -0.0154877
0.0110905 0 -0.018893 -0.0027193 0 -0.018893 0.00282365 0 -0.0171658 0.00840275
0 0.0189314 -0.00268894 0 0.0155453 0.0111349 0 0.0189314 0.00285377 0
-0.00344538 -0.0188361 0 0.00344538 -0.0188361 0 -0.0171658 -0.00852385 0 0.0172162
0.00844179 0 0.0172162 -0.00848386 0 -0.00758282 0.0177113 0 0.00759938 0.0177235
0 -0.0122727 -0.0149021 0 0.0123323 -0.0148546 0 -0.00175719 -0.0192397 0
[...]
CELL_DATA 15677
FIELD attributes 1
U 3 15677 float
-0.304871 10.2652 0 0.190476 10.9192 0 -0.101144 9.44667 0 0.0315569 10.9901
0 0.118846 10.7323 0 -0.0119272 8.75836 0 0.045528 11.0075 0
0.0144838 10.9815 0 0.0577133 10.4719 0 0.0115313 8.22933 0 0.0466952
11.0122 0 0.0433909 11.0311 0 0.0260937 10.9286 0 0.0319078 10.1908
0 0.0113223 7.8561 0 0.0440124 11.0135 0 0.0424065 11.0439 0
0.0428086 11.0209 0 0.0332381 10.8603 0 0.0213717 9.90295 0 0.00644216
7.61197 0 0.0413775 11.0136 0 0.0404479 11.0462 0 0.0402105 11.0448
0 0.0398953 11.0049 0 0.0328245 10.7692 0 0.0159543 9.63757 0
0.0025052 7.45871 0 0.0386369 11.0131 0 0.0389911 11.0453 0 0.0393863
11.0533 0 0.0385054 11.0445 0 0.0358535 10.9826 0 0.0288611 10.6571
0 0.0121627 9.41245 0 0.000563429 7.36228 0 0.0356117 11.0123 0
0.0373757 11.0435 0 0.0387181 11.056 0 0.038454 11.0587 0 0.0360567
11.0421 0 0.0318462 10.9528 0 0.0240823 10.5327 0 0.00902261 9.23748
0 1.76624e-05 7.30008 0 0.0323303 11.0113 0 0.0354661 11.0411 0
0.0376295 11.0557 0 0.0378944 11.064 0 0.0361263 11.0634 0 0.0329233
11.0364 0 0.0284246 10.9174 0 0.0194926 10.3981 0 0.00646254 9.1067
0 -0.000237377 7.25753 0 0.0288547 11.0101 0 0.0333355 11.0382 0
0.0362326 11.054 0 0.0369498 11.0652 0 0.0355685 11.0717 0 0.0329723
11.0663 0 0.0298279 11.0289 0 0.025422 10.8759 0 0.0154677 10.2694
0 0.00440756 9.01185 0 -0.00046684 7.23303 0 0.0252626 11.0089 0
0.0310068 11.0348 0 0.0345764 11.0514 0 0.0357326 11.0644 0 0.0346606
11.0746 0 0.032421 11.0784 0 0.0297859 11.0687 0 0.0268424 11.0213
0 0.0222164 10.8306 0 0.0118453 10.1593 0 0.00266755 8.94592 0
-0.000670966 7.22148 0 0.021549 11.0077 0 0.0284854 11.0312 0 0.0326532
11.0481 0 0.0342506 11.0623 0 0.0334638 11.0747 0 0.0314774 11.0833
0 0.0291273 11.0853 0 0.0266412 11.0724 0 0.0235551 11.0144 0
0.0185203 10.7846 0 0.00845177 10.0705 0 0.00110213 8.90387 0 -0.00108697
7.22347 0 0.0178432 11.0065 0 0.0258773 11.0273 0 0.0304488 11.0442
0 0.0324876 11.0592 0 0.0319823 11.0731 0 0.0301959 11.0844 0
0.0279969 11.0924 0 0.0257217 11.0938 0 0.0231568 11.0784 0 0.0198692
11.009 0 0.0144011 10.741 0 0.00514381 10.0053 0 -0.000540434 8.88289
0 -0.00170793 7.23876 0 0.0146466 11.0053 0 0.0231926 11.0233 0
0.0279905 11.0398 0 0.030426 11.0554 0 0.0302072 11.0703 0 0.0285926
11.0835 0 0.0264653 11.0948 0 0.024232 11.1033 0 0.021831 11.105
0 0.0191353 11.0874 0 0.0156804 11.0062 0 0.0099262 10.7051 0
0.00167064 9.96279 0 -0.00221137 8.88098 0 -0.00237456 7.2677 0 0.0120666
11.0043 0 0.0206486 11.0196 0 0.0253137 11.0351 0 0.0280524 11.0508
0 0.0281222 11.0666 0 0.0266626 11.0811 0 0.0245579 11.0945 0
0.0222641 11.107 0 0.0198245 11.117 0 0.0172334 11.1196 0 0.0143929
11.1004 0 0.0107832 11.0078 0 0.00503907 10.6801 0 -0.0019106 9.94207
0 -0.00410105 8.89739 0 -0.00320065 7.31043 0 0.00991235 11.0034 0
0.0183838 11.0164 0 0.0227142 11.0306 0 0.025372 11.0457 0 0.0257075
11.062 0 0.024389 11.0776 0 0.0222724 11.0926 0 0.0198471 11.1075
0 0.0172447 11.122 0 0.0145338 11.1342 0 0.0117409 11.1386 0
0.00874341 11.1183 0 0.00508574 11.0154 0 -0.000323123 10.6683 0 -0.00577502
9.94209 0 -0.00618954 8.93111 0 -0.00411753 7.36714 0 0.00824352 11.0027
0 0.0163623 11.0136 0 0.020365 11.0266 0 0.0226949 11.0407 0
0.0229525 11.0566 0 0.0217509 11.0731 0 0.0195928 11.0893 0 0.0169783
11.1059 0 0.0141188 11.1232 0 0.0111417 11.1406 0 0.00814672 11.1558
0 0.00515072 11.1628 0 0.0020749 11.1421 0 -0.0014472 11.0308 0
-0.00618904 10.6711 0 -0.0099632 9.96192 0 -0.00848884 8.98207 0 -0.00511423
7.43762 0 0.00685941 11.0021 0 0.0144593 11.0112 0 0.0182035 11.0231
0 0.0202223 11.0362 0 0.0201605 11.0511 0 0.0187333 11.0675 0
0.0164995 11.0848 0 0.0136435 11.1027 0 0.010442 11.1219 0 0.007081
11.1424 0 0.00371101 11.1635 0 0.000433072 11.1827 0 -0.00269363 11.193
0 -0.00569472 11.1729 0 -0.00883625 11.0555 0 -0.0125962 10.6897 0
-0.0145079 10.0006 0 -0.0109837 9.04947 0 -0.00617891 7.52167 0 0.00572282
11.0017 0 0.0127725 11.0093 0 0.0161868 11.0201 0 0.0178954 11.0321
0 0.0175527 11.0461 0 0.0156634 11.0617 0 0.012979 11.0791 0
0.00982604 11.0982 0 0.00619901 11.1188 0 0.00234172 11.1413 0 -0.00154548
11.1659 0 -0.00530615 11.1916 0 -0.00879795 11.2157 0 -0.0119113 11.2302
0 -0.0146205 11.2119 0 -0.0171101 11.091 0 -0.0195594 10.7244 0
-0.0194059 10.0575 0 -0.0136666 9.13285 0 -0.00729375 7.61861 0 0.00478972
11.0014 0 0.0112511 11.0078 0 0.0143315 11.0174 0 0.0157173 11.0285
0 0.0150807 11.0414 0 0.0127918 11.0562 0 0.00941129 11.0729 0
0.00551876 11.0922 0 0.00137616 11.114 0 -0.00309484 11.1381 0 -0.00764046
11.165 0 -0.0120517 11.1945 0 -0.0161322 11.2257 0 -0.0196904 11.2555
0 -0.0225815 11.2751 0 -0.0247441 11.2598 0 -0.0262698 11.138 0
-0.0270645 10.7755 0 -0.0246384 10.1318 0 -0.0165148 9.23143 0 -0.00845892
7.7278 0 0.00404928 11.0011 0 0.0098839 11.0066 0 0.0126417 11.0152
0 0.0136938 11.0252 0 0.012763 11.0372 0 0.0100734 11.051 0
0.00608691 11.0669 0 0.001188 11.0855 0 -0.00402499 11.1075 0 -0.00924085
11.1329 0 -0.0145992 11.1615 0 -0.0198335 11.1936 0 -0.0246962 11.229
0 -0.0289433 11.2666 0 -0.0323519 11.3029 0 -0.0347596 11.3287 0
-0.0360682 11.3176 0 -0.0362856 11.1974 0 -0.0350854 10.8428 0 -0.0301853
10.2225 0 -0.0195126 9.34447 0 -0.00965383 7.84849 0 0.00348134 11.001
0 0.00871752 11.0056 0 0.0111032 11.0133 0 0.0118327 11.0224 0
0.010611 11.0333 0 0.00753529 11.046 0 0.0029565 11.061 0 -0.00281987
11.0788 0 -0.00941491 11.1001 0 -0.0160846 11.1258 0 -0.0224341 11.1558
0 -0.0286866 11.1897 0 -0.0345371 11.228 0 -0.0396916 11.2702 0
-0.0438756 11.315 0 -0.0468557 11.3587 0 -0.0484567 11.3914 0 -0.0485574
11.3858 0 -0.0470979 11.2696 0 -0.0435803 10.9258 0 -0.036007 10.3288
0 -0.0226186 9.47088 0 -0.0108478 7.97948 0 0.00304106 11.0008 0
0.00776285 11.0048 0 0.00975979 11.0117 0 0.010132 11.0199 0 0.00863443
11.0298 0 0.00519602 11.0415 0 5.49831e-05 11.0553 0 -0.00656589 11.0721
0 -0.0143696 11.0926 0 -0.0228734 11.1175 0 -0.0311226 11.1477 0
-0.0386263 11.1832 0 -0.0457043 11.2236 0 -0.0520056 11.2689 0 -0.0572058
11.3187 0 -0.0610231 11.3716 0 -0.0632228 11.4234 0 -0.0636369 11.4638
0 -0.0621411 11.4647 0 -0.0586259 11.3544 0 -0.0524839 11.0236 0
-0.0420314 10.4492 0 -0.0257833 9.6094 0 -0.0120273 8.11951 0 0.00269354
11.0007 0 0.00697783 11.0043 0 0.00864287 11.0105 0 0.00865387 11.0178
0 0.00683793 11.0266 0 0.00306933 11.0372 0 -0.00259107 11.0499 0
-0.0100068 11.0655 0 -0.0189671 11.0848 0 -0.0290796 11.1087 0 -0.0397042
11.1381 0 -0.0496189 11.174 0 -0.0582187 11.2161 0 -0.0659538 11.2637
0 -0.0724432 11.317 0 -0.077357 11.3753 0 -0.0804204 11.4369 0
-0.0814217 11.4974 0 -0.0802191 11.5461 0 -0.0767066 11.5544 0 -0.0707503
11.4517 0 -0.061688 11.1354 0 -0.0482006 10.5825 0 -0.0289692 9.75869
0 -0.0131812 8.26725 0 0.00241493 11.0006 0 0.00632973 11.0038 0
0.00772027 11.0095 0 0.00743514 11.016 0 0.00529269 11.0238 0 0.00116434
11.0333 0 -0.00496202 11.0448 0 -0.0131076 11.059 0 -0.0231541 11.077
0 -0.0348045 11.0996 0 -0.0475176 11.1279 0 -0.0604456 11.1628 0
-0.0720362 11.2053 0 -0.0815677 11.255 0 -0.0896829 11.3109 0 -0.0959982
11.373 0 -0.100197 11.4405 0 -0.102039 11.5114 0 -0.10136 11.5811
0 -0.0980739 11.6385 0 -0.0921224 11.6548 0 -0.0833482 11.561 0
-0.0710859 11.2599 0 -0.0544422 10.7275 0 -0.0321403 9.91728 0 -0.0142892
8.42133 0 0.0021885 11.0006 0 0.00579048 11.0035 0 0.0069522 11.0087
0 0.00643565 11.0146 0 0.00403586 11.0215 0 -0.000441775 11.0298 0
-0.00704387 11.0399 0 -0.0158417 11.0528 0 -0.0268859 11.0693 0 -0.039982
11.0903 0 -0.0546938 11.1171 0 -0.0702775 11.1508 0 -0.0856243 11.1922
0 -0.098795 11.2424 0 -0.108972 11.3007 0 -0.117075 11.3659 0
-0.122741 11.4375 0 -0.1257 11.5148 0 -0.12578 11.5954 0 -0.122899
11.6745 0 -0.117041 11.7409 0 -0.108209 11.7655 0 -0.0962792 11.6815
0 -0.0805902 11.3958 0 -0.0606764 10.8824 0 -0.0352579 10.0836 0
-0.0153398 8.58027 0 0.00200232 11.0005 0 0.00533887 11.0032 0 0.00630902
11.008 0 0.00561216 11.0134 0 0.00302148 11.0196 0 -0.00171628 11.0268
0 -0.00875149 11.0355 0 -0.0181894 11.0468 0 -0.030127 11.0616 0
-0.0445549 11.0809 0 -0.0611508 11.1059 0 -0.0792829 11.1379 0 -0.0979474
11.1779 0 -0.115727 11.2269 0 -0.130253 11.286 0 -0.140657 11.3539
0 -0.148227 11.4291 0 -0.152661 11.5109 0 -0.153773 11.5983 0
-0.151492 11.6889 0 -0.14584 11.7776 0 -0.136909 11.8528 0 -0.12478
11.8861 0 -0.10938 11.8121 0 -0.0900871 11.5417 0 -0.0668291 11.0457
0 -0.0382894 10.2562 0 -0.0163349 8.74267 0 0.00184766 11.0004 0
0.00495832 11.0029 0 0.00576729 11.0074 0 0.00493101 11.0124 0 0.00220167
11.0179 0 -0.00271518 11.0243 0 -0.0100594 11.0317 0 -0.0200547 11.0413
0 -0.0328503 11.0542 0 -0.0484766 11.0715 0 -0.0668156 11.0944 0
-0.0873591 11.1243 0 -0.109219 11.1624 0 -0.131078 11.21 0 -0.151176
11.2677 0 -0.166691 11.3367 0 -0.176762 11.4152 0 -0.183147 11.501
0 -0.185655 11.5936 0 -0.184228 11.6914 0 -0.178937 11.7919 0
-0.169941 11.8899 0 -0.157443 11.9739 0 -0.141637 12.0156 0 -0.122498
11.9517 0 -0.0994656 11.696 0 -0.0728377 11.2159 0 -0.0412141 10.4333
0 -0.0171902 8.90743 0 0.00171806 11.0004 0 0.00463576 11.0027 0
0.00530837 11.007 0 0.00436529 11.0115 0 0.00153793 11.0166 0 -0.00349514
11.0221 0 -0.0110398 11.0285 0 -0.0214227 11.0365 0 -0.0349449 11.0472
0 -0.0517104 11.0622 0 -0.0716273 11.0829 0 -0.0944135 11.1103 0
-0.119312 11.1461 0 -0.145118 11.1915 0 -0.170158 11.2477 0 -0.192318
11.3153 0 -0.208294 11.3952 0 -0.217303 11.485 0 -0.221718 11.5821
0 -0.221516 11.6855 0 -0.216809 11.7938 0 -0.20784 11.904 0
-0.194926 12.0111 0 -0.178403 12.1033 0 -0.158577 12.1531 0 -0.135489
12.0991 0 -0.108626 11.8573 0 -0.0786591 11.3912 0 -0.0439638 10.6138
0 -0.0184996 9.07177 0 0.0016086 11.0004 0 0.00436082 11.0026 0
0.00491725 11.0066 0 0.00389353 11.0108 0 0.000999382 11.0154 0 -0.00410185
11.0202 0 -0.0117635 11.0257 0 -0.022389 11.0323 0 -0.0364096 11.0411
0 -0.0541247 11.0535 0 -0.0755366 11.0713 0 -0.100367 11.096 0
-0.128108 11.129 0 -0.157688 11.1717 0 -0.187535 11.2256 0 -0.2156
11.2916 0 -0.239379 11.3702 0 -0.255102 11.4619 0 -0.262175 11.5637
0 -0.263732 11.6724 0 -0.259967 11.7869 0 -0.251205 11.9053 0
-0.237888 12.0249 0 -0.220504 12.1404 0 -0.199537 12.2404 0 -0.175403
12.2977 0 -0.148214 12.2529 0 -0.117496 12.024 0 -0.0842222 11.5704
0 -0.0471695 10.7954 0 -0.0197239 9.26538 0 0.00151551 11.0003 0
0.00412527 11.0024 0 0.00458387 11.0063 0 0.00349839 11.0102 0 0.000561349
11.0144 0 -0.00457187 11.0186 0 -0.0122876 11.0232 0 -0.0230446 11.0286
0 -0.0373714 11.0357 0 -0.0557345 11.0456 0 -0.0783836 11.0602 0
-0.105153 11.0816 0 -0.135505 11.1114 0 -0.168638 11.151 0 -0.203111
11.2019 0 -0.236952 11.2655 0 -0.267682 11.3425 0 -0.292452 11.433
0 -0.307038 11.5373 0 -0.311168 11.6516 0 -0.308886 11.7721 0
-0.300656 11.8973 0 -0.287048 12.0256 0 -0.268728 12.154 0 -0.246371
12.2772 0 -0.220596 12.384 0 -0.191928 12.4481 0 -0.160561 12.4118
0 -0.125984 12.1946 0 -0.0899108 11.7513 0 -0.0499895 10.9984 0
-0.0200436 9.46431 0 0.00143577 11.0003 0 0.00392264 11.0023 0 0.00429692
11.006 0 0.0031659 11.0097 0 0.000204129 11.0135 0 -0.00493432 11.0173
0 -0.0126575 11.0211 0 -0.0234626 11.0255 0 -0.0379486 11.031 0
-0.0567078 11.0388 0 -0.0802024 11.0503 0 -0.108575 11.0677 0 -0.141416
11.0935 0 -0.177838 11.1294 0 -0.216698 11.1768 0 -0.256132 11.2372
0 -0.293709 11.3117 0 -0.326553 11.4008 0 -0.351492 11.5042 0
-0.363892 11.6217 0 -0.36395 11.7488 0 -0.356774 11.8809 0 -0.34315
12.0166 0 -0.323923 12.1541 0 -0.299995 12.2905 0 -0.272218 12.4205
0 -0.24134 12.5333 0 -0.207996 12.6031 0 -0.172408 12.5745 0
-0.134294 12.3673 0 -0.0953149 11.9535 0 -0.0518244 11.221 0 -0.0204422
9.6588 0 0.00136693 11.0003 0 0.00374772 11.0022 0 0.00404879 11.0057
0 0.00288615 11.0092 0 -8.80603e-05 11.0127 0 -0.00521235 11.0161 0
-0.0129092 11.0193 0 -0.0237011 11.0227 0 -0.038236 11.0269 0 -0.0571985
11.0327 0 -0.0812123 11.0415 0 -0.110687 11.0552 0 -0.145592 11.0762
0 -0.185173 11.1074 0 -0.22813 11.1507 0 -0.272908 11.2072 0
-0.317164 11.2783 0 -0.358018 11.365 0 -0.392211 11.4672 0 -0.4163
11.5841 0 -0.425306 11.7153 0 -0.420065 11.8551 0 -0.406908 11.9985
0 -0.386973 12.1441 0 -0.361399 12.29 0 -0.331319 12.4334 0
-0.297753 12.5693 0 -0.261565 12.6869 0 -0.223447 12.7617 0 -0.183822
12.7392 0 -0.14262 12.5609 0 -0.100116 12.1762 0 -0.0538335 11.4397
0 -0.0208691 9.84676 0 0.00130765 11.0003 0 0.00359597 11.0021 0
0.00383451 11.0055 0 0.00264921 11.0088 0 -0.000327686 11.0121 0 -0.0054243
11.015 0 -0.0130711 11.0177 0 -0.0238058 11.0203 0 -0.0383088 11.0232
0 -0.0573296 11.0273 0 -0.0816122 11.0337 0 -0.111772 11.044 0
-0.14811 11.0604 0 -0.19033 11.0859 0 -0.237254 11.1237 0 -0.287071
11.1756 0 -0.337762 11.2426 0 -0.386492 11.3258 0 -0.429934 11.4257
0 -0.464484 11.542 0 -0.486512 11.6731 0 -0.490791 11.818 0
-0.478971 11.9704 0 -0.45874 12.1245 0 -0.431619 12.2792 0 -0.399036
12.4325 0 -0.362342 12.5819 0 -0.322709 12.7224 0 -0.281066 12.844
0 -0.238237 12.9222 0 -0.195503 12.9241 0 -0.150516 12.7745 0
-0.104707 12.3956 0 -0.0557641 11.652 0 -0.0212238 10.0268 0 0.00346325
11.0021 0 0.00123593 11.0003 0 0.00364788 11.0053 0 0.00244747 11.0085
0 -0.000524711 11.0115 0 -0.00558468 11.0141 0 -0.0131653 11.0163 0
-0.0238124 11.0181 0 -0.0382257 11.02 0 -0.0571986 11.0226 0 -0.0815616
11.0268 0 -0.112085 11.0341 0 -0.149328 11.0464 0 -0.193402 11.0664
0 -0.243675 11.0974 0 -0.298424 11.1429 0 -0.355239 11.2049 0
-0.411626 11.2837 0 -0.464237 11.3803 0 -0.509326 11.4946 0 -0.543022
11.6255 0 -0.561618 11.7711 0 -0.559744 11.9297 0 -0.540042 12.0941
0 -0.511683 12.2583 0 -0.47657 12.421 0 -0.436405 12.5807 0
-0.392736 12.7349 0 -0.346833 12.879 0 -0.299711 13.0029 0 -0.253578
13.1023 0 -0.206924 13.1282 0 -0.157706 12.9853 0 -0.108862 12.6095
0 -0.0574136 11.8563 0 -0.0214878 10.1985 0 0.00348243 11.0052 0
0.00330724 11.002 0 0.00114913 11.0002 0 0.00227413 11.0082 0 -0.000687101
11.011 0 -0.00570461 11.0133 0 -0.0132093 11.015 0 -0.0237487 11.0163
0 -0.0380323 11.0172 0 -0.0568815 11.0185 0 -0.0811862 11.0207 0
-0.11183 11.0252 0 -0.149571 11.0338 0 -0.19484 11.0488 0 -0.247499
11.0732 0 -0.306459 11.1109 0 -0.369343 11.1657 0 -0.43309 11.2392
0 -0.494699 11.3312 0 -0.550328 11.4423 0 -0.595876 11.5719 0
-0.627308 11.7181 0 -0.64097 11.8782 0 -0.631465 12.0502 0 -0.602601
12.2259 0 -0.565127 12.399 0 -0.521311 12.5687 0 -0.473103 12.7335
0 -0.422186 12.8913 0 -0.36992 13.0375 0 -0.319201 13.1813 0
-0.268859 13.3012 0 -0.217207 13.3299 0 -0.164135 13.1913 0 -0.112423
12.816 0 -0.0587713 12.0516 0 -0.0216536 10.3614 0 0.00211989 11.0079
0 0.00330046 11.005 0 0.00310992 11.0019 0 0.00106593 11.0002 3.97881e-19
-0.000822701 11.0105 0 -0.00579267 11.0126 0 -0.0132161 11.014 0 -0.023636
11.0146 0 -0.037764 11.0148 0 -0.056437 11.0148 0 -0.0805843 11.0153
0 -0.11117 11.0174 0 -0.149098 11.0226 0 -0.19505 11.033 0
-0.249281 11.0514 0 -0.31129 11.0814 0 -0.379427 11.127 0 -0.450566
11.1925 0 -0.520915 11.279 0 -0.586987 11.3857 0 -0.644498 11.5125
0 -0.689082 11.658 0 -0.716671 11.8197 0 -0.723805 11.9942 0
-0.705185 12.1789 0 -0.665943 12.3649 0 -0.618466 12.5459 0 -0.565356
12.7212 0 -0.508748 12.89 0 -0.450424 13.0499 0 -0.394173 13.2156
0 -0.338863 13.3785 0 -0.282583 13.4979 0 -0.226393 13.5272 0
-0.169695 13.3905 0 -0.115412 13.0142 0 -0.0598557 12.2376 0 -0.0217247
10.5151 0 -0.000946191 11.0102 0 0.0019684 11.0076 0 0.00308494 11.0047
1.74185e-18 0.00291867 11.0017 -1.25973e-18 0.000985898 11.0002 -8.07494e-19 -0.00585722 11.012 0
-0.0131952 11.013 0 -0.0234902 11.0132 0 -0.0374476 11.0126 0 -0.0559104
11.0116 0 -0.0798315 11.0106 0 -0.11023 11.0105 0 -0.148115 11.0127
0 -0.194358 11.019 0 -0.249524 11.0319 0 -0.313589 11.0547 0
-0.385593 11.0913 0 -0.463228 11.1463 0 -0.542482 11.2241 0 -0.618811
11.3252 0 -0.688293 11.4478 0 -0.74628 11.5912 0 -0.788267 11.7531
0 -0.8103 11.9304 0 -0.809269 12.1188 0 -0.78009 12.3152 0
-0.729355 12.5105 0 -0.67112 12.698 0 -0.608247 12.8777 0 -0.543006
13.0487 0 -0.480196 13.2282 0 -0.418854 13.4125 0 -0.356566 13.5735
0 -0.294829 13.6904 0 -0.234393 13.7183 0 -0.174409 13.582 0
-0.117873 13.2034 0 -0.0606928 12.4139 0 -0.0217138 10.6596 0 -0.0059203
11.0115 0 -0.00102908 11.0097 -3.52598e-18 0.00180048 11.0071 -1.83404e-18 0.00287526 11.0044
8.84287e-19 0.00273076 11.0016 -8.51853e-19 0.000909083 11.0002 0 -0.0131555 11.0122 0
-0.0233221 11.0119 0 -0.0371028 11.0107 0 -0.055336 11.0087 0 -0.0789858
11.0064 0 -0.109106 11.0044 0 -0.146782 11.0039 0 -0.193024 11.0065
0 -0.248635 11.0144 0 -0.313973 11.0306 0 -0.388646 11.0589 0
-0.471145 11.1035 0 -0.558357 11.1695 0 -0.6453 11.2612 0 -0.726673
11.3783 0 -0.798212 11.518 0 -0.855017 11.6788 0 -0.892594 11.8574
0 -0.907269 12.0499 0 -0.89644 12.2514 0 -0.855349 12.4585 0
-0.792146 12.6616 0 -0.722542 12.8543 0 -0.649577 13.0367 0 -0.57924
13.2275 0 -0.510687 13.4254 0 -0.441151 13.6073 0 -0.372374 13.7644
0 -0.305539 13.8772 0 -0.241227 13.9022 0 -0.178339 13.7651 0
-0.119852 13.3831 0 -0.0613129 12.5802 0 -0.0216353 10.7949 0 -0.0131294
11.0114 0 -0.00588812 11.0108 7.42102e-18 -0.00107828 11.0091 0 0.0016394 11.0067
1.86071e-18 0.00267265 11.0042 5.85243e-22 0.00254675 11.0015 0 0.000835474 11.0002 0
-0.023141 11.0108 0 -0.0367424 11.009 0 -0.0547384 11.0062 0 -0.0780913
11.0027 0 -0.107875 10.999 0 -0.145224 10.9962 0 -0.191251 10.9954
0 -0.246938 10.9989 0 -0.312941 11.0091 0 -0.389331 11.0296 0
-0.475266 11.0645 0 -0.568542 11.1187 0 -0.665139 11.1973 0 -0.759024
11.3045 0 -0.844182 11.4391 0 -0.916132 11.5969 0 -0.969873 11.7755
0 -1.0011 11.9708 0 -1.00658 12.1779 0 -0.984365 12.3915 0
-0.930134 12.608 0 -0.853659 12.8174 0 -0.772236 13.0135 0 -0.693435
13.216 0 -0.616531 13.4255 0 -0.53834 13.6208 0 -0.461092 13.7983
0 -0.38626 13.9498 0 -0.314738 14.0571 0 -0.246972 14.0783 0
-0.181549 13.9394 0 -0.121403 13.5532 0 -0.0617464 12.7366 0 -0.0215019
10.9213 0 -0.0229943 11.0098 0 -0.0129312 11.0106 5.01654e-22 -0.00573751 11.01
0 -0.00112535 11.0085 -1.95811e-18 0.00148722 11.0063 4.1883e-22 0.00247728 11.004 0
0.00236669 11.0014 0 0.000765062 11.0001 0 -0.0363759 11.0075 0 -0.0541329
11.004 0 -0.0771791 10.9994 0 -0.106591 10.9943 0 -0.143536 10.9893
0 -0.189196 10.9856 0 -0.244687 10.985 0 -0.310894 10.9899 0
-0.388255 11.0033 0 -0.47648 11.0291 0 -0.574139 11.0722 0 -0.678222
11.1375 0 -0.783703 11.2305 0 -0.883445 11.3549 0 -0.970798 11.5082
0 -1.04125 11.6849 0 -1.08986 11.8815 0 -1.11271 12.093 0
-1.10718 12.3139 0 -1.0721 12.5384 0 -1.00366 12.7626 0 -0.913282
12.9766 0 -0.825136 13.1934 0 -0.738753 13.4151 0 -0.650484 13.6219
0 -0.56313 13.8125 0 -0.478665 13.9838 0 -0.398261 14.1286 0
-0.322524 14.2296 0 -0.251722 14.2462 0 -0.184111 14.1045 0 -0.122574
13.7136 0 -0.0620198 12.8832 0 -0.0213247 11.039 0 -0.0360715 11.0062
0 -0.0225691 11.0087 -4.10408e-18 -0.0124865 11.0096 0 -0.00559155 11.0093 0
-0.00115915 11.0079 5.95644e-18 0.00134385 11.006 0 0.00228898 11.0037 0 0.00219074
11.0013 1.7751e-18 0.000697855 11.0001 0 -0.0535295 11.0021 0 -0.0762677 10.9965
0 -0.105295 10.99 0 -0.141788 10.9832 0 -0.186978 10.9769 0
-0.242079 10.9727 0 -0.308147 10.9727 0 -0.385908 10.9797 0 -0.475518
10.9973 0 -0.576194 11.0299 0 -0.685808 11.0826 0 -0.80044 11.1609
0 -0.913966 11.2699 0 -1.01813 11.413 0 -1.10577 11.5861 0
-1.17257 11.7822 0 -1.21387 11.9967 0 -1.2263 12.2238 0 -1.20801
12.4573 0 -1.15874 12.6911 0 -1.07519 12.9213 0 -0.976955 13.157
0 -0.879982 13.3937 0 -0.780153 13.6129 0 -0.680999 13.8148 0
-0.585049 13.9989 0 -0.493922 14.1628 0 -0.408485 14.3001 0 -0.329013
14.3941 0 -0.255574 14.4053 0 -0.186099 14.2604 0 -0.123415 13.8643
0 -0.0621583 13.0203 0 -0.0211142 11.1485 0 -0.0530248 11.0003 0
-0.0353438 11.0047 0 -0.0217127 11.0074 -4.48528e-18 -0.0120584 11.0086 -4.3285e-18 -0.00542626
11.0085 -8.34926e-18 -0.00117962 11.0074 0 0.00120935 11.0056 -3.87765e-18 0.00210797 11.0035
-3.73486e-18 0.00201887 11.0013 1.79761e-18 0.000633705 11.0001 0 -0.0753677 10.994 0
-0.104009 10.9863 0 -0.140033 10.9778 0 -0.184691 10.9691 0 -0.239265
10.9618 0 -0.304946 10.9574 0 -0.382676 10.9587 0 -0.472969 10.9687
0 -0.575575 10.9917 0 -0.689115 11.0326 0 -0.810651 11.0967 0