#           x             T
    -0.118946       349.771
    -0.118121       349.762
    -0.117174       349.756
    -0.116087       349.752
    -0.114839        349.75
    -0.113407       349.748
    -0.111763       349.747
    -0.109877       349.745
    -0.107712       349.745
    -0.105226       349.744
    -0.102373       349.745
   -0.0990994       349.747
   -0.0953416       349.752
   -0.0914285       349.765
    -0.087619       349.792
   -0.0838095       349.843
        -0.08       349.942
   -0.0761904       350.127
   -0.0723809       350.475
   -0.0685714       351.113
   -0.0649271       352.203
    -0.061624       353.873
   -0.0586549       356.209
   -0.0559862       359.203
   -0.0535874       362.733
   -0.0514312       366.603
   -0.0494932       370.597
   -0.0477512       374.498
   -0.0461853       378.127
   -0.0447779       381.362
   -0.0435128       384.147
   -0.0423757       386.475
   -0.0413536       388.378
   -0.0404349       390.007
     -0.03925       391.674
     -0.03775       393.217
     -0.03625       394.294
     -0.03475       394.878
     -0.03325       395.073
     -0.03175       395.016
     -0.03025       394.825
     -0.02875       394.557
     -0.02725       394.251
     -0.02575        393.93
   -0.0243993       393.624
   -0.0231362        393.34
    -0.021743       393.043
   -0.0202065       392.711
   -0.0185118       392.361
   -0.0171075       392.094
   -0.0161272       391.919
   -0.0145812       391.668
    -0.012414       391.352
   -0.0103452       391.091
  -0.00847254       390.895
  -0.00711441       390.775
  -0.00630907       390.712
  -0.00524316       390.639
  -0.00385435       390.561
  -0.00259726       390.508
  -0.00133333       390.471
            0       390.447
   0.00133333       390.439
   0.00260066       390.444
   0.00386381       390.461
   0.00525697       390.494
   0.00631696       390.525
   0.00712283       390.553
    0.0084882       390.605
    0.0103573       390.684
    0.0124188        390.78
    0.0145859       390.885
    0.0161321       390.959
     0.017115       391.007
    0.0185274       391.074
    0.0202225       391.156
    0.0217568       391.232
    0.0231456       391.309
    0.0244027       391.392
      0.02575       391.498
      0.02725       391.643
      0.02875       391.831
      0.03025       392.073
      0.03175       392.376
      0.03325       392.738
      0.03475       393.148
      0.03625        393.57
      0.03775       393.926
      0.03925       394.083
    0.0404349       393.949
    0.0413536       393.548
    0.0423757       392.751
    0.0435128       391.373
    0.0447779       389.241
    0.0461853       386.233
    0.0477511        382.34
    0.0494932       377.725
    0.0514312       372.662
    0.0535874       367.534
    0.0559862        362.74
    0.0586549       358.614
     0.061624       355.365
    0.0649271       353.044
    0.0685714       351.547
    0.0723809       350.684
    0.0761904       350.225
         0.08       349.985
    0.0838095       349.861
     0.087619       349.797
    0.0914285       349.765
    0.0953419       349.749
    0.0991002       349.742
     0.102374        349.74
     0.105227       349.739
     0.107713        349.74
     0.109878       349.741
     0.111765       349.742
     0.113408       349.743
      0.11484       349.745
     0.116088       349.747
     0.117175       349.751
     0.118122       349.757
     0.118947       349.767
     0.119665       349.777
