#           x             T
    -0.118947       349.777
    -0.118121       349.773
    -0.117174       349.769
    -0.116087       349.765
     -0.11484       349.762
    -0.113408        349.76
    -0.111764       349.758
    -0.109877       349.756
    -0.107712       349.755
    -0.105227       349.753
    -0.102374       349.752
   -0.0990995       349.751
   -0.0953416       349.752
   -0.0914285       349.755
   -0.0876191       349.765
   -0.0838095       349.788
        -0.08       349.839
   -0.0761904       349.945
   -0.0723809       350.166
   -0.0685715        350.62
   -0.0649271       351.494
    -0.061624       353.019
    -0.058655       355.455
   -0.0559862       358.981
   -0.0535874       363.575
   -0.0514313       368.981
   -0.0494932         374.8
   -0.0477512       380.457
   -0.0461853       385.432
   -0.0447779       389.409
   -0.0435128       392.348
   -0.0423757       394.387
   -0.0413536       395.724
   -0.0404349       396.564
     -0.03925       397.016
     -0.03775       396.821
     -0.03625       395.982
     -0.03475       394.856
     -0.03325       393.784
     -0.03175       392.906
     -0.03025       392.237
     -0.02875       391.748
     -0.02725       391.403
     -0.02575       391.165
   -0.0243994        391.01
   -0.0231362       390.901
    -0.021743       390.811
   -0.0202065       390.735
   -0.0189203       390.677
   -0.0180315       390.637
   -0.0166427       390.577
   -0.0145812       390.486
    -0.012414       390.396
   -0.0110231       390.338
   -0.0100402       390.298
  -0.00847254       390.234
  -0.00677747       390.172
  -0.00524316       390.123
  -0.00385435       390.085
  -0.00288618       390.062
  -0.00228892       390.049
  -0.00133333       390.031
            0        390.01
   0.00133333       389.996
     0.002289       389.989
   0.00288966       389.985
   0.00386381       389.981
   0.00525697       389.978
   0.00679351       389.978
    0.0084882       389.978
    0.0100473        389.98
    0.0110276       389.982
    0.0124188       389.987
    0.0145859       389.999
    0.0166548       390.029
    0.0180384       390.065
    0.0189282       390.098
    0.0202225       390.162
    0.0217568       390.276
    0.0231456       390.433
    0.0244027       390.637
      0.02575       390.928
      0.02725        391.34
      0.02875       391.885
      0.03025       392.573
      0.03175       393.414
      0.03325       394.397
      0.03475       395.469
      0.03625       396.477
      0.03775       397.136
      0.03925        397.19
    0.0404349       396.703
    0.0413536       395.862
    0.0423757       394.543
    0.0435128       392.548
    0.0447779       389.682
    0.0461853         385.8
    0.0477511        380.94
    0.0494932       375.386
    0.0514312       369.619
    0.0535874       364.165
    0.0559862       359.469
    0.0586549       355.812
     0.061624        353.25
    0.0649271       351.628
    0.0685714       350.691
    0.0723809       350.202
    0.0761904       349.964
         0.08       349.849
    0.0838095       349.794
     0.087619       349.768
    0.0914285       349.757
    0.0953419       349.753
    0.0991002       349.752
     0.102374       349.752
     0.105227       349.753
     0.107713       349.754
     0.109878       349.756
     0.111765       349.757
     0.113408       349.759
      0.11484       349.762
     0.116088       349.765
     0.117175       349.769
     0.118122       349.773
     0.118947       349.777
     0.119665       349.781
