#           x             T
    -0.118946       349.917
    -0.118121       349.907
    -0.117174         349.9
    -0.116087       349.895
    -0.114839       349.892
    -0.113407        349.89
    -0.111763       349.889
    -0.109877       349.888
    -0.107712       349.889
    -0.105226        349.89
    -0.102373       349.893
   -0.0990994       349.898
   -0.0953416       349.908
   -0.0914285       349.927
    -0.087619       349.962
   -0.0838095       350.025
        -0.08       350.144
   -0.0761904       350.368
   -0.0723809       350.793
   -0.0685714       351.601
   -0.0649271       353.044
    -0.061624       355.372
   -0.0586549       358.767
   -0.0559862       363.189
   -0.0535874       368.289
   -0.0514312       373.526
   -0.0494932       378.399
   -0.0477512         382.6
   -0.0461853       386.025
   -0.0447779       388.707
   -0.0435128       390.748
   -0.0423757       392.266
   -0.0413536       393.369
   -0.0404349       394.201
     -0.03925       394.951
     -0.03775       395.591
     -0.03625       396.021
     -0.03475       396.254
     -0.03325       396.337
     -0.03175       396.307
     -0.03025       396.194
     -0.02875       396.025
     -0.02725       395.821
     -0.02575       395.603
   -0.0243993       395.394
   -0.0231362         395.2
    -0.021743       395.001
   -0.0202065       394.791
   -0.0185118       394.578
   -0.0171075       394.417
   -0.0161272       394.314
   -0.0145812       394.164
    -0.012414       393.972
   -0.0103452         393.8
  -0.00847254       393.645
  -0.00711441        393.53
  -0.00630907       393.459
  -0.00524316       393.359
  -0.00385435       393.217
  -0.00259726       393.074
  -0.00133333        392.92
            0       392.738
   0.00133333       392.541
   0.00260066       392.348
   0.00386381       392.144
   0.00525697       391.918
   0.00631696       391.747
   0.00712283       391.621
    0.0084882        391.42
    0.0103573       391.168
    0.0124188       390.946
    0.0145859       390.798
    0.0161321       390.727
     0.017115       390.693
    0.0185274       390.661
    0.0202225       390.627
    0.0217568       390.599
    0.0231456       390.592
    0.0244027       390.556
      0.02575       390.424
      0.02725       390.171
      0.02875       389.756
      0.03025       389.124
      0.03175        388.25
      0.03325       387.115
      0.03475       385.704
      0.03625        384.01
      0.03775       382.038
      0.03925       379.917
    0.0404349       378.032
    0.0413536       376.442
    0.0423757        374.79
    0.0435128       372.924
    0.0447779       370.814
    0.0461853       368.459
    0.0477511       365.899
    0.0494932       363.217
    0.0514312       360.528
    0.0535874       357.974
    0.0559862       355.702
    0.0586549       353.826
     0.061624       352.392
    0.0649271       351.376
    0.0685714       350.713
    0.0723809       350.321
    0.0761904       350.106
         0.08        349.99
    0.0838095       349.928
     0.087619       349.895
    0.0914285       349.879
    0.0953419       349.871
    0.0991002       349.868
     0.102374       349.867
     0.105227       349.867
     0.107713       349.868
     0.109878       349.869
     0.111765        349.87
     0.113408       349.872
      0.11484       349.875
     0.116088       349.879
     0.117175       349.884
     0.118122       349.892
     0.118947       349.903
     0.119665       349.912
