#           x             T
    -0.118947       349.917
    -0.118121       349.912
    -0.117174       349.905
    -0.116087       349.899
     -0.11484       349.895
    -0.113408       349.892
    -0.111764        349.89
    -0.109877        349.89
    -0.107712       349.889
    -0.105227       349.889
    -0.102374        349.89
   -0.0990995       349.892
   -0.0953416       349.896
   -0.0914285       349.902
   -0.0876191       349.913
   -0.0838095       349.934
        -0.08       349.974
   -0.0761904        350.05
   -0.0723809       350.196
   -0.0685715       350.476
   -0.0649271        350.98
    -0.061624       351.806
    -0.058655       353.058
   -0.0559862       354.816
   -0.0535874       357.096
   -0.0514313       359.847
   -0.0494932       362.971
   -0.0477512       366.346
   -0.0461853       369.846
   -0.0447779       373.338
   -0.0435128       376.677
   -0.0423757       379.727
   -0.0413536       382.388
   -0.0404349       384.762
     -0.03925       387.304
     -0.03775       389.916
     -0.03625       392.135
     -0.03475       393.864
     -0.03325       395.169
     -0.03175       396.125
     -0.03025       396.804
     -0.02875       397.269
     -0.02725       397.572
     -0.02575       397.752
   -0.0243994       397.842
   -0.0231362       397.872
    -0.021743       397.859
   -0.0202065       397.801
   -0.0189203       397.735
   -0.0180315       397.684
   -0.0166427       397.597
   -0.0145812       397.459
    -0.012414       397.306
   -0.0110231       397.214
   -0.0100402       397.151
  -0.00847254       397.059
  -0.00677747       396.976
  -0.00524316       396.917
  -0.00385435       396.881
  -0.00288618       396.867
  -0.00228892       396.862
  -0.00133333       396.868
            0         396.9
   0.00133333       396.958
     0.002289       397.016
   0.00288966       397.067
   0.00386381       397.164
   0.00525697       397.337
   0.00679351       397.578
    0.0084882       397.869
    0.0100473       398.161
    0.0110276       398.344
    0.0124188       398.588
    0.0145859       398.928
    0.0166548       399.111
    0.0180384       399.197
    0.0189282        399.24
    0.0202225       399.288
    0.0217568       399.325
    0.0231456       399.341
    0.0244027       399.349
      0.02575       399.356
      0.02725       399.363
      0.02875        399.37
      0.03025       399.377
      0.03175       399.381
      0.03325       399.376
      0.03475       399.342
      0.03625       399.236
      0.03775       398.968
      0.03925        398.41
    0.0404349       397.577
    0.0413536       396.559
    0.0423757       395.108
    0.0435128       392.982
    0.0447779       389.967
    0.0461853       385.905
    0.0477511       380.812
    0.0494932       374.999
    0.0514312       369.005
    0.0535874       363.437
    0.0559862       358.783
    0.0586549       355.301
     0.061624       352.956
    0.0649271       351.505
    0.0685714       350.679
    0.0723809       350.251
    0.0761904       350.045
         0.08       349.946
    0.0838095       349.899
     0.087619       349.878
    0.0914285       349.868
    0.0953419       349.865
    0.0991002       349.864
     0.102374       349.864
     0.105227       349.864
     0.107713       349.865
     0.109878       349.866
     0.111765       349.868
     0.113408        349.87
      0.11484       349.873
     0.116088       349.878
     0.117175       349.884
     0.118122       349.891
     0.118947       349.897
     0.119665       349.901
