# vtk DataFile Version 2.0
sampleSurface
ASCII
DATASET POLYDATA
POINTS 15978 float
-4.26165e-19 0.000133477 0 -4.18079e-19 -0.000798814 0 -4.33681e-19 0.001 0 -4.09379e-19 -0.00180187
0 -0.00181681 0.000361473 0 0.00181681 0.000361473 0 -0.00181396 -0.000575145 0
0.00181396 -0.000575145 0 -0.00181945 0.00123202 0 0.00181945 0.00123202 0 -0.00181089
-0.00158285 0 0.00181089 -0.00158285 0 -4.00018e-19 -0.00288105 0 -0.00180759 -0.00266704
0 0.00180759 -0.00266704 0 -0.00351565 8.15481e-05 0 0.00351565 8.15481e-05 0
-0.00351186 -0.000939823 0 0.00351186 -0.000939823 0 -0.00351918 0.00103087 0 0.00351918
0.00103087 0 -0.00352245 0.00191322 0 0.00352245 0.00191322 0 -3.89947e-19 -0.00404214
0 -0.00350777 -0.00203871 0 0.00350777 -0.00203871 0 -0.00180405 -0.00383352 0
0.00180405 -0.00383352 0 -0.00350338 -0.00322101 0 0.00350338 -0.00322101 0 -0.005
8.60602e-05 0 0.005 8.60602e-05 0 -0.005 -0.00103629 0 0.005 -0.00103629
0 -0.005 0.00112923 0 0.005 0.00112923 0 -3.79112e-19 -0.00529135 0
-0.00180023 -0.00508853 0 0.00180023 -0.00508853 0 -0.005 0.00209882 0 0.005
0.00209882 0 -0.005 -0.00224382 0 0.005 -0.00224382 0 -0.00349866 -0.00449304
0 0.00349866 -0.00449304 0 -0.005 0.003 0 0.005 0.003 0
-0.005 -0.003543 0 0.005 -0.003543 0 -0.00637208 2.82617e-05 0 0.00639053
4.25732e-05 0 -0.00637208 0.00114892 0 -0.00637208 -0.00117745 0 0.00639053 -0.00116311
0 0.00639053 0.00116321 0 -3.67455e-19 -0.00663538 0 -0.00179612 -0.00643879 0
0.00179612 -0.00643879 0 -0.00637208 0.00219052 0 0.00639053 0.00220479 0 -0.00349357
-0.00586162 0 0.00349357 -0.00586162 0 -0.00637208 -0.00247467 0 0.00639053 -0.00246031
0 -0.005 -0.00494079 0 0.005 -0.00494079 0 -0.00637208 0.00315864 0
0.00639053 0.00317289 0 -0.00637208 -0.00387036 0 0.00639053 -0.00385597 0 -0.00637208
0.00405846 0 0.00639053 0.00407269 0 -0.00778421 -7.99569e-05 0 0.00781802 -5.3679e-05
0 -0.00778421 0.00112388 0 0.00781802 0.00115011 0 -0.00778421 -0.00137517 0
0.00781802 -0.00134884 0 -3.54912e-19 -0.00808142 0 -0.0017917 -0.00789154 0 0.0017917
-0.00789154 0 -0.00778421 0.0022428 0 -0.0034881 -0.00733407 0 0.0034881 -0.00733407
0 0.00781802 0.00226899 0 -0.005 -0.00644467 0 0.005 -0.00644467 0
-0.00778421 -0.00276868 0 0.00781802 -0.0027423 0 -0.00637208 -0.00537197 0 0.00639053
-0.00535755 0 -0.00778421 0.00328278 0 0.00781802 0.00330893 0 -0.00778421 0.00424939
0 -0.00778421 -0.00426796 0 0.00781802 -0.00424152 0 0.00781802 0.00427551 0
-0.00923755 -0.000243565 0 0.00928347 -0.000207818 0 -0.00923755 0.00104957 0 -0.00778421
0.00514782 0 0.00928347 0.00108525 0 0.00781802 0.0051739 0 -0.00923755 -0.00163485
0 0.00928347 -0.00159903 0 -0.00637208 -0.00698755 0 0.00639053 -0.0069731 0
-0.005 -0.0080627 0 0.005 -0.0080627 0 -0.00923755 0.00225148 0 0.00928347
0.0022871 0 -0.00348222 -0.00891827 0 0.00348222 -0.00891827 0 -0.00178695 -0.00945455
0 0.00178695 -0.00945455 0 -3.41418e-19 -0.00963721 0 -0.00923755 -0.00313172 0
-0.00778421 -0.00588103 0 0.00781802 -0.00585453 0 0.00928347 -0.00309583 0 -0.00923755
0.0033686 0 0.00928347 0.00340416 0 -0.00923755 0.00440692 0 0.00928347 0.00444243
0 -0.00923755 -0.00474221 0 0.00928347 -0.00470623 0 -0.00923755 0.00537198 0
-0.0107333 -0.000467921 0 0.00928347 0.00540745 0 -0.0107333 0.000921062 0 0.0107879
-0.000425364 0 0.00639053 -0.00871127 0 -0.00637208 -0.00872575 0 0.0107879 0.000963535
0 -0.00778421 -0.00761653 0 0.00781802 -0.00758997 0 -0.0107333 -0.00196233 0
0.0107879 -0.00191968 0 -0.0107333 0.00221206 0 -0.005 -0.00980352 0 0.005
-0.00980352 0 0.0107879 0.00225445 0 -0.00923755 0.00626897 0 -0.00347589 -0.0106227
0 0.00347589 -0.0106227 0 0.00928347 0.00630439 0 -0.0107333 0.00341198 0
-0.00178183 -0.0111362 0 0.00178183 -0.0111362 0 -0.00923755 -0.00647493 0 0.00928347
-0.00643887 0 -3.26899e-19 -0.0113111 0 -0.0107333 -0.00357015 0 0.0107879 0.00345431
0 0.0107879 -0.00352741 0 -0.0107333 0.00452726 0 0.0107879 0.00456952 0
-0.0107333 -0.00530001 0 0.0107879 -0.00525717 0 -0.0107333 0.00556386 0 0.0107879
0.00560606 0 -0.000743369 0.0122055 0 0.000743369 0.0122055 0 -0.00778421 -0.00948375
0 0.00781802 -0.00945713 0 -0.0122727 0.000733061 0 -0.0122727 -0.000758799 0
0.0123323 -0.000712262 0 0.0123323 0.0007795 0 0.00639053 -0.0105814 0 -0.00637208
-0.0105959 0 -0.00923755 -0.00833916 0 -0.0122727 0.00211968 0 0.00928347 -0.00830301
0 -0.0122727 -0.00236389 0 0.0123323 0.00216603 0 0.0123323 -0.00231725 0
-0.0107333 0.00652734 0 0.0107879 0.00656947 0 -0.005 -0.0116765 0 0.005
-0.0116765 0 -0.0122727 0.00340848 0 0.0123323 0.00345474 0 -0.000741126 0.0128136
0 0.000741126 0.0128136 0 -0.0107333 -0.00716117 0 0.0107879 -0.00711821 0
-0.00346908 -0.0124565 0 0.00346908 -0.0124565 0 -0.0122727 -0.00409081 0 0.0123323
-0.00404405 0 -0.0107333 0.00742284 0 -0.00177633 -0.0129455 0 0.00177633 -0.0129455
0 -0.0122727 0.00460636 0 -3.11279e-19 -0.013112 0 0.0107879 0.00746492 0
-0.002 0.013 0 0.002 0.013 0 0.0123323 0.00465255 0 -0.0007387
0.0134712 0 0.0007387 0.0134712 0 -0.0122727 0.00571974 0 0.0123323 0.00576585
0 -0.0122727 -0.00594879 0 0.0123323 -0.00590191 0 -0.002 0.0135849 0
0.002 0.0135849 0 -0.0138571 0.000479853 0 -0.00923755 -0.0103449 0 0.00928347
-0.0103086 0 0.00781802 -0.011466 0 -0.00778421 -0.0114927 0 -0.0138571 -0.00112242
0 0.0139177 0.000527252 0 0.0139177 -0.00107491 0 -0.0138571 0.0019691 0
-0.0122727 0.00675458 0 0.0139177 0.00201639 0 0.0123323 0.00680062 0 -0.0107333
-0.00916358 0 0.00639053 -0.0125934 0 0.0107879 -0.0091205 0 -0.00637208 -0.012608
0 -0.0138571 -0.0028463 0 0.0139177 -0.00279868 0 -0.000736077 0.0141824 0
0.000736077 0.0141824 0 -0.00319452 0.0138829 0 0.00320133 0.0138879 0 -0.0138571
0.00335328 0 0.0139177 0.00340049 0 -0.002 0.0142174 0 0.002 0.0142174
0 -0.0122727 0.00771641 0 0.0123323 0.00776239 0 -0.005 -0.0136916 0
0.005 -0.0136916 0 -0.0138571 0.00463982 0 -0.0122727 -0.0079478 0 -0.0138571
-0.00470103 0 0.0123323 -0.00790078 0 0.0139177 -0.00465328 0 0.0139177 0.00468694
0 -0.00319452 0.0144678 0 0.00320133 0.0144728 0 -0.00346175 -0.0144295 0
0.00346175 -0.0144295 0 -0.00073324 0.0149515 0 0.00073324 0.0149515 0 -0.0122727
0.00861039 0 -0.00177041 -0.0148921 0 0.00177041 -0.0148921 0 -0.002 0.0149014
0 0.002 0.0149014 0 -0.0138571 0.0058356 0 -2.94473e-19 -0.0150496 0
0.0123323 0.00865631 0 0.0139177 0.00588264 0 -0.0138571 -0.00669653 0 0.0139177
-0.00664864 0 -0.00319452 0.0151003 0 0.00320133 0.0151053 0 -0.0154877 0.000155282
0 -0.0138571 0.00694702 0 -0.00451419 0.0148583 0 0.0045263 0.0148673 0
0.00928347 -0.0124665 0 -0.00923755 -0.0125028 0 0.0155453 0.000200444 0 -0.0154877
-0.00156548 0 0.0139177 0.00699399 0 -0.0154877 0.00175466 0 -0.0107333 -0.011318
0 0.0107879 -0.0112748 0 0.0155453 -0.00152021 0 0.0155453 0.00179972 0
0.00781802 -0.0136273 0 -0.00778421 -0.0136541 0 -0.002 0.0156411 0 0.002
0.0156411 0 -0.000730172 0.0157833 0 0.000730172 0.0157833 0 -0.0154877 0.0032412
0 -0.0154877 -0.00341685 0 0.0155453 0.00328617 0 -0.0122727 -0.0100985 0
0.0155453 -0.00337146 0 0.0123323 -0.0100514 0 -0.0138571 0.00798004 0 0.0139177
0.00802694 0 0.00639053 -0.0147581 0 -0.00637208 -0.0147727 0 -0.00451419 0.0154432
0 0.0045263 0.0154521 0 -0.00319452 0.0157843 0 0.00320133 0.0157893 0
-0.0154877 0.00462288 0 0.0155453 0.00466776 0 -0.0154877 -0.00540874 0 -0.0138571
-0.00884348 0 0.0155453 -0.00536322 0 0.0139177 -0.00879545 0 -0.0138571 0.00894019
0 -0.002 0.0164411 0 0.002 0.0164411 0 0.0139177 0.00898702 0
-0.0154877 0.00590709 0 -0.005 -0.0158596 0 0.005 -0.0158596 0 0.0155453
0.00595189 0 -0.00451419 0.0160757 0 -0.000726854 0.0166828 0 0.000726854 0.0166828
0 0.0045263 0.0160846 0 -0.00319452 0.016524 0 0.00320133 0.016529 0
-0.00345386 -0.0165523 0 0.00345386 -0.0165523 0 -0.0138571 0.0098326 0 -0.00597213
0.0159359 0 0.00598764 0.0159474 0 -0.0154877 0.00710071 0 0.0139177 0.00987937
0 -0.00176404 -0.0169864 0 0.00176404 -0.0169864 0 0.0155453 0.00714543 0
-2.76391e-19 -0.0171343 0 -0.0171658 -0.000247278 0 0.0172162 -0.000207752 0 -0.0171658
0.00147028 0 -0.0154877 -0.0075518 0 0.0155453 -0.00750615 0 0.0172162 0.00150971
0 -0.0171658 -0.00209519 0 0.0172162 -0.00205556 0 0.0107879 -0.0135925 0
-0.0107333 -0.0136359 0 -0.00451419 0.0167597 0 0.0045263 0.0167686 0 -0.002
0.0173062 0 0.002 0.0173062 0 -0.0171658 0.00306667 0 -0.0122727 -0.0124125
0 0.00928347 -0.0147881 0 0.0123323 -0.0123652 0 -0.00923755 -0.0148246 0
0.0172162 0.00310601 0 -0.0154877 0.00821012 0 -0.00597213 0.0165208 0 0.00598764
0.0165323 0 0.0155453 0.00825477 0 -0.00319452 0.017324 0 0.00320133 0.017329
0 -0.0171658 -0.00408336 0 -0.000723266 0.0176555 0 0.000723266 0.0176555 0
0.0172162 -0.00404362 0 -0.0171658 0.00455044 0 0.00781802 -0.0159527 0 -0.00778421
-0.0159796 0 -0.0138571 -0.0111534 0 0.0139177 -0.0111052 0 0.0172162 0.0045897
0 -0.0154877 0.00924127 0 -0.00451419 0.0174994 0 0.0045263 0.0175084 0
0.0155453 0.00928585 0 -0.0171658 0.00592954 0 -0.00597213 0.0171533 0 0.00598764
0.0171648 0 0.0172162 0.00596872 0 0.00639053 -0.0170872 0 -0.00637208 -0.0171018
0 -0.0171658 -0.00622243 0 0.0172162 -0.00618257 0 -0.002 0.0182418 0
0.002 0.0182418 0 -0.0154877 -0.00985753 0 0.0155453 -0.00981172 0 -0.00319452
0.0181891 0 0.00320133 0.0181941 0 -0.0154877 0.0101997 0 0.0155453 0.0102442
0 -0.0171658 0.00721136 0 0.0172162 0.00725047 0 -0.000719385 0.0187075 0
0.000719385 0.0187075 0 -0.00758282 0.0171264 0 0.00759938 0.0171387 0 -0.00597213
0.0178373 0 0.00598764 0.0178488 0 -0.00451419 0.0182994 0 0.0045263 0.0183083
0 -0.005 -0.0181922 0 0.005 -0.0181922 0 -0.018893 -0.00073496 0
-0.018893 0.0011094 0 0.0189314 -0.000704684 0 0.0189314 0.0011396 0 -0.0154877
0.0110905 0 -0.018893 -0.0027193 0 -0.018893 0.00282365 0 -0.0171658 0.00840275
0 0.0189314 -0.00268894 0 0.0155453 0.0111349 0 0.0189314 0.00285377 0
-0.00344538 -0.0188361 0 0.00344538 -0.0188361 0 -0.0171658 -0.00852385 0 0.0172162
0.00844179 0 0.0172162 -0.00848386 0 -0.00758282 0.0177113 0 0.00759938 0.0177235
0 -0.0122727 -0.0149021 0 0.0123323 -0.0148546 0 -0.00175719 -0.0192397 0
[...]
CELL_DATA 15677
FIELD attributes 1
U 3 15677 float
-0.304868 10.2652 0 0.190471 10.9192 0 -0.101143 9.44679 0 0.0315535 10.9901
0 0.118832 10.7324 0 -0.011932 8.75872 0 0.0455225 11.0075 0
0.0144621 10.9816 0 0.0576971 10.4722 0 0.011523 8.22998 0 0.0466879
11.0122 0 0.0433648 11.0311 0 0.0260666 10.9289 0 0.031889 10.1914
0 0.011315 7.85707 0 0.0440044 11.0135 0 0.0423674 11.0439 0
0.0427688 11.0211 0 0.0332025 10.8609 0 0.0213498 9.90387 0 0.0064322
7.6132 0 0.0413691 11.0136 0 0.0404007 11.0462 0 0.0401558 11.0451
0 0.0398425 11.0054 0 0.0327809 10.7701 0 0.0159286 9.63892 0
0.00249412 7.46034 0 0.0386272 11.0131 0 0.0389338 11.0453 0 0.0393146
11.0536 0 0.0384325 11.045 0 0.0357888 10.9835 0 0.0288152 10.6584
0 0.0121396 9.41415 0 0.00055056 7.36415 0 0.0356005 11.0123 0
0.0373037 11.0435 0 0.0386255 11.0562 0 0.0383593 11.0593 0 0.0359676
11.0429 0 0.0317723 10.954 0 0.0240319 10.5343 0 0.00899753 9.23952
0 4.6476e-06 7.30235 0 0.0323179 11.0113 0 0.0353801 11.0411 0
0.037514 11.0559 0 0.0377747 11.0645 0 0.0360107 11.0642 0 0.0328234
11.0376 0 0.0283472 10.919 0 0.0194397 10.4001 0 0.0064327 9.10912
0 -0.00025038 7.26011 0 0.028841 11.0101 0 0.0332324 11.0382 0
0.036092 11.0542 0 0.0368007 11.0657 0 0.0354225 11.0725 0 0.0328411
11.0674 0 0.0297192 11.0305 0 0.0253372 10.8779 0 0.0154115 10.2718
0 0.00437561 9.01462 0 -0.000482411 7.23598 0 0.0252438 11.0089 0
0.0308839 11.0349 0 0.034407 11.0516 0 0.03555 11.0649 0 0.034479
11.0754 0 0.0322541 11.0796 0 0.0296424 11.0703 0 0.026724 11.0232
0 0.0221272 10.8329 0 0.0117865 10.1622 0 0.00263146 8.94908 0
-0.000684826 7.22481 0 0.0215514 11.0077 0 0.0283438 11.0312 0 0.0324504
11.0483 0 0.0340297 11.0627 0 0.0332416 11.0755 0 0.0312696 11.0844
0 0.028944 11.0868 0 0.0264858 11.0743 0 0.02343 11.0167 0
0.0184265 10.7873 0 0.0083862 10.0737 0 0.00106461 8.90742 0 -0.00110256
7.22717 0 0.0178379 11.0065 0 0.0256901 11.0273 0 0.0302094 11.0444
0 0.0322228 11.0597 0 0.0317136 11.0739 0 0.0299413 11.0856 0
0.0277679 11.0939 0 0.0255231 11.0957 0 0.0229908 11.0807 0 0.0197353
11.0117 0 0.0142986 10.7442 0 0.0050702 10.0089 0 -0.000593318 8.88686
0 -0.0017264 7.24286 0 0.0146422 11.0053 0 0.0229771 11.0234 0
0.0277034 11.0401 0 0.030111 11.0559 0 0.0298853 11.0711 0 0.0282844
11.0846 0 0.0261842 11.0963 0 0.0239839 11.1052 0 0.0216181 11.1073
0 0.018957 11.0901 0 0.0155344 11.0093 0 0.00981333 10.7087 0
0.00158009 9.96683 0 -0.00226126 8.8854 0 -0.00239545 7.27222 0 0.0120565
11.0043 0 0.0203968 11.0197 0 0.0249803 11.0353 0 0.0276797 11.0513
0 0.0277398 11.0674 0 0.0262934 11.0822 0 0.0242174 11.096 0
0.0219594 11.1089 0 0.019558 11.1192 0 0.0170048 11.1223 0 0.0141991
11.1035 0 0.0106239 11.0113 0 0.0049163 10.6841 0 -0.00200214 9.94655
0 -0.00415503 8.90228 0 -0.00322501 7.3154 0 0.00990645 11.0035 0
0.0180975 11.0165 0 0.0223318 11.0308 0 0.0249353 11.0462 0 0.0252567
11.0628 0 0.0239506 11.0787 0 0.0218641 11.0941 0 0.0194776 11.1094
0 0.0169169 11.1243 0 0.0142473 11.1369 0 0.0114927 11.1417 0
0.00853193 11.1218 0 0.00491116 11.0193 0 -0.000459218 10.6727 0 -0.00587518
9.94704 0 -0.00624878 8.93648 0 -0.00414439 7.37257 0 0.00819347 11.0027
0 0.0160287 11.0137 0 0.0199386 11.0269 0 0.022194 11.0411 0
0.0224245 11.0574 0 0.0212342 11.0742 0 0.0191077 11.0908 0 0.0165352
11.1078 0 0.0137212 11.1254 0 0.0107891 11.1432 0 0.00783603 11.1589
0 0.00487987 11.1662 0 0.00184181 11.146 0 -0.0016403 11.0352 0
-0.00634092 10.676 0 -0.0100736 9.96736 0 -0.00855347 8.98794 0 -0.00514367
7.44353 0 0.00680851 11.0022 0 0.0141182 11.0114 0 0.0177325 11.0234
0 0.0196627 11.0366 0 0.0195547 11.0519 0 0.0181282 11.0686 0
0.0159273 11.0862 0 0.0131165 11.1046 0 0.00996468 11.1241 0 0.00665283
11.145 0 0.00332878 11.1665 0 9.41415e-05 11.1862 0 -0.00299151 11.1969
0 -0.00595069 11.1773 0 -0.00904905 11.0604 0 -0.0127639 10.6951 0
-0.0146288 10.0066 0 -0.0110535 9.05585 0 -0.00621032 7.52807 0 0.00565928
11.0017 0 0.0123789 11.0094 0 0.0156846 11.0204 0 0.0172807 11.0326
0 0.0168743 11.0468 0 0.0149686 11.0628 0 0.0123084 11.0805 0
0.00920397 11.1 0 0.00563092 11.121 0 0.00182734 11.144 0 -0.00200954
11.1689 0 -0.00572302 11.1951 0 -0.00916938 11.2196 0 -0.0122387 11.2345
0 -0.0149021 11.2167 0 -0.0173438 11.0963 0 -0.0197428 10.7303 0
-0.0195373 10.064 0 -0.0137417 9.13976 0 -0.00732686 7.6255 0 0.00471586
11.0014 0 0.0108327 11.0079 0 0.013799 11.0177 0 0.0150507 11.0289
0 0.0143332 11.0422 0 0.0120122 11.0573 0 0.00864042 11.0743 0
0.00478913 11.094 0 0.000705001 11.1162 0 -0.00370746 11.1407 0 -0.00819802
11.168 0 -0.0125578 11.198 0 -0.0165891 11.2296 0 -0.0200995 11.2598
0 -0.0229417 11.28 0 -0.0250534 11.2652 0 -0.026525 11.1439 0
-0.0272631 10.7819 0 -0.0247794 10.1387 0 -0.0165945 9.23886 0 -0.0084932
7.73519 0 0.0039666 11.0012 0 0.00943445 11.0066 0 0.0120698 11.0155
0 0.0129795 11.0257 0 0.0119486 11.0379 0 0.0092116 11.052 0
0.00522036 11.0683 0 0.000348232 11.0872 0 -0.00481293 11.1097 0 -0.00996519
11.1355 0 -0.0152634 11.1645 0 -0.0204416 11.197 0 -0.0252509 11.2329
0 -0.0294463 11.2709 0 -0.032802 11.3077 0 -0.0351552 11.334 0
-0.036406 11.3235 0 -0.0365622 11.2038 0 -0.0352985 10.8497 0 -0.0303354
10.23 0 -0.0195963 9.35243 0 -0.00968846 7.85637 0 0.00339133 11.001
0 0.00824405 11.0057 0 0.0104966 11.0135 0 0.0110674 11.0228 0
0.00973253 11.034 0 0.00659337 11.047 0 0.00199644 11.0623 0 -0.00376507
11.0805 0 -0.0103227 11.1023 0 -0.0169357 11.1283 0 -0.0232198 11.1587
0 -0.0294112 11.1931 0 -0.0352038 11.2318 0 -0.040302 11.2745 0
-0.0444289 11.3198 0 -0.04735 11.364 0 -0.0488889 11.3972 0 -0.0489238
11.3921 0 -0.0473949 11.2764 0 -0.0438066 10.9332 0 -0.0361648 10.3368
0 -0.0227057 9.47937 0 -0.010883 7.98783 0 0.00294481 11.0008 0
0.00726807 11.0049 0 0.00911887 11.0119 0 0.00931895 11.0203 0 0.00769252
11.0304 0 0.0041763 11.0424 0 -0.000996399 11.0566 0 -0.00761449 11.0737
0 -0.0153923 11.0946 0 -0.0238548 11.1199 0 -0.0320464 11.1506 0
-0.0394838 11.1866 0 -0.0464989 11.2274 0 -0.052739 11.2732 0 -0.0578774
11.3235 0 -0.0616307 11.3769 0 -0.063763 11.4292 0 -0.0641059 11.4701
0 -0.0625351 11.4715 0 -0.0589419 11.3618 0 -0.0527219 11.0316 0
-0.0421961 10.4577 0 -0.0258733 9.61841 0 -0.0120631 8.12833 0 0.00259199
11.0007 0 0.00646582 11.0043 0 0.00797183 11.0107 0 0.00779526 11.0182
0 0.00583451 11.0272 0 0.0019739 11.0381 0 -0.00373144 11.0512 0
-0.0111565 11.0671 0 -0.0201028 11.0868 0 -0.0301862 11.1112 0 -0.0407701
11.141 0 -0.0506276 11.1773 0 -0.0591593 11.2198 0 -0.0668281 11.268
0 -0.0732503 11.3217 0 -0.0780945 11.3806 0 -0.0810846 11.4427 0
-0.0820084 11.5037 0 -0.0807242 11.553 0 -0.0771266 11.5618 0 -0.0710837
11.4597 0 -0.0619368 11.1439 0 -0.0483713 10.5916 0 -0.0290617 9.7682
0 -0.0132176 8.27653 0 0.00230882 11.0006 0 0.00580328 11.0039 0
0.00702231 11.0097 0 0.00653664 11.0164 0 0.00423175 11.0244 0 -4.54812e-06
11.0342 0 -0.00618874 11.046 0 -0.0143559 11.0606 0 -0.0244003 11.0789
0 -0.036034 11.102 0 -0.0487201 11.1307 0 -0.06161 11.166 0
-0.0731431 11.209 0 -0.0826028 11.2592 0 -0.0906451 11.3156 0 -0.0968846
11.3783 0 -0.101003 11.4463 0 -0.102761 11.5177 0 -0.101993 11.5879
0 -0.0986138 11.6459 0 -0.0925668 11.6627 0 -0.0836972 11.5695 0
-0.0713441 11.2689 0 -0.0546181 10.7371 0 -0.0322348 9.92728 0 -0.0143254
8.43104 0 0.0020785 11.0006 0 0.00525197 11.0035 0 0.00623053 11.0088
0 0.00550226 11.0149 0 0.0029245 11.0221 0 -0.00167863 11.0306 0
-0.00835412 11.0411 0 -0.0171857 11.0543 0 -0.0282399 11.0711 0 -0.0413319
11.0926 0 -0.0560306 11.1199 0 -0.0715918 11.1539 0 -0.0869027 11.1958
0 -0.100013 11.2466 0 -0.110112 11.3054 0 -0.118132 11.371 0
-0.123711 11.4432 0 -0.126578 11.521 0 -0.12656 11.6022 0 -0.123576
11.6819 0 -0.117614 11.7488 0 -0.108675 11.774 0 -0.0966422 11.6905
0 -0.0808563 11.4053 0 -0.0608564 10.8925 0 -0.0353538 10.0941 0
-0.0153756 8.59039 0 0.00188898 11.0005 0 0.0047902 11.0032 0 0.00556633
11.0082 0 0.00464839 11.0137 0 0.00186633 11.0201 0 -0.00301253 11.0276
0 -0.0101387 11.0367 0 -0.0196258 11.0483 0 -0.0315855 11.0635 0
-0.0460223 11.0831 0 -0.0626191 11.1086 0 -0.0807445 11.141 0 -0.0993908
11.1815 0 -0.117134 11.231 0 -0.131594 11.2906 0 -0.141909 11.3591
0 -0.149383 11.4347 0 -0.153716 11.5172 0 -0.154721 11.6051 0
-0.152327 11.6962 0 -0.14656 11.7855 0 -0.137512 11.8613 0 -0.125267
11.8951 0 -0.109755 11.8216 0 -0.0903593 11.5517 0 -0.0670117 11.0563
0 -0.0383858 10.2671 0 -0.0163702 8.7532 0 0.00173147 11.0005 0
0.00440095 11.003 0 0.00500565 11.0076 0 0.00394077 11.0127 0 0.00100855
11.0185 0 -0.0040628 11.025 0 -0.0115137 11.0328 0 -0.0215761 11.0427
0 -0.0344098 11.056 0 -0.0500581 11.0737 0 -0.0684124 11.097 0
-0.0889654 11.1273 0 -0.110825 11.1659 0 -0.132668 11.214 0 -0.152726
11.2722 0 -0.168166 11.3418 0 -0.178133 11.4208 0 -0.184407 11.5072
0 -0.186797 11.6003 0 -0.185246 11.6987 0 -0.179827 11.7998 0
-0.170701 11.8984 0 -0.158074 11.9829 0 -0.142142 12.0252 0 -0.122883
11.9618 0 -0.0997422 11.7066 0 -0.0730221 11.2269 0 -0.0413106 10.4447
0 -0.0172248 8.91833 0 0.00159944 11.0004 0 0.00407081 11.0028 0
0.00453015 11.0071 0 0.00335193 11.0119 0 0.00031194 11.0171 0 -0.00488715
11.0229 0 -0.012552 11.0295 0 -0.0230181 11.0378 0 -0.0365974 11.0489
0 -0.0534021 11.0643 0 -0.073349 11.0854 0 -0.0961611 11.1133 0
-0.121078 11.1495 0 -0.146888 11.1954 0 -0.17191 11.2521 0 -0.194023
11.3203 0 -0.20991 11.4007 0 -0.218796 11.4911 0 -0.223082 11.5888
0 -0.222742 11.6928 0 -0.217894 11.8016 0 -0.208781 11.9125 0
-0.195723 12.0201 0 -0.179059 12.1129 0 -0.159097 12.1633 0 -0.135882
12.1097 0 -0.108905 11.8683 0 -0.0788439 11.4027 0 -0.0440596 10.6255
0 -0.0185343 9.08302 0 0.00148785 11.0004 0 0.00378932 11.0026 0
0.00412651 11.0068 0 0.00285957 11.0111 0 -0.000255043 11.0159 0 -0.00553222
11.021 0 -0.0133258 11.0267 0 -0.0240484 11.0336 0 -0.0381431 11.0427
0 -0.0559179 11.0555 0 -0.0773792 11.0737 0 -0.102252 11.0989 0
-0.13003 11.1323 0 -0.159634 11.1755 0 -0.189486 11.23 0 -0.217528
11.2965 0 -0.241248 11.3757 0 -0.256863 11.468 0 -0.263793 11.5704
0 -0.265199 11.6797 0 -0.261276 11.7947 0 -0.252355 11.9137 0
-0.238877 12.0339 0 -0.221336 12.15 0 -0.200215 12.2505 0 -0.175936
12.3084 0 -0.148612 12.264 0 -0.117777 12.0354 0 -0.0844063 11.5823
0 -0.0472652 10.8075 0 -0.0197569 9.277 0 0.00139284 11.0004 0
0.00354832 11.0025 0 0.00377844 11.0064 0 0.00244652 11.0105 0 -0.000717702
11.0148 0 -0.0060354 11.0194 0 -0.0138931 11.0242 0 -0.0247594 11.0299
0 -0.039175 11.0373 0 -0.0576165 11.0476 0 -0.0803378 11.0625 0
-0.107172 11.0843 0 -0.137579 11.1146 0 -0.170758 11.1547 0 -0.205258
11.2062 0 -0.239099 11.2703 0 -0.269796 11.3479 0 -0.294491 11.439
0 -0.308947 11.5439 0 -0.31291 11.6588 0 -0.310453 11.7799 0
-0.302045 11.9057 0 -0.288258 12.0346 0 -0.269762 12.1636 0 -0.247232
12.2874 0 -0.221292 12.3947 0 -0.19247 12.4593 0 -0.160963 12.4234
0 -0.126264 12.2066 0 -0.0900932 11.7636 0 -0.0500827 11.0109 0
-0.0200735 9.47628 0 0.00131131 11.0003 0 0.00334122 11.0024 0 0.00347924
11.0061 0 0.00210046 11.01 0 -0.00109631 11.014 0 -0.00642657 11.018
0 -0.0143005 11.0221 0 -0.0252253 11.0267 0 -0.0398131 11.0325 0
-0.0586668 11.0406 0 -0.0822543 11.0525 0 -0.110717 11.0703 0 -0.143638
11.0966 0 -0.180127 11.133 0 -0.219038 11.181 0 -0.258496 11.2419
0 -0.296065 11.317 0 -0.328859 11.4067 0 -0.353703 11.5107 0
-0.365949 11.6288 0 -0.365813 11.7565 0 -0.358438 11.8892 0 -0.344613
12.0255 0 -0.325188 12.1636 0 -0.301067 12.3006 0 -0.273105 12.4312
0 -0.242051 12.5445 0 -0.208544 12.6148 0 -0.17281 12.5865 0
-0.134571 12.3797 0 -0.0954924 11.9662 0 -0.0519115 11.2339 0 -0.0204691
9.67109 0 0.0012408 11.0003 0 0.00316267 11.0023 0 0.00322224 11.0059
0 0.00180681 11.0095 0 -0.00140691 11.0132 0 -0.00672955 11.0167 0
-0.0145847 11.0202 0 -0.0255055 11.0239 0 -0.0401533 11.0283 0 -0.0592243
11.0345 0 -0.083349 11.0436 0 -0.112937 11.0577 0 -0.147951 11.0792
0 -0.187627 11.1109 0 -0.230657 11.1547 0 -0.275486 11.2117 0
-0.319759 11.2835 0 -0.36059 11.3707 0 -0.394715 11.4736 0 -0.418684
11.5912 0 -0.427508 11.7229 0 -0.422046 11.8634 0 -0.408663 12.0074
0 -0.388506 12.1536 0 -0.362714 12.3001 0 -0.332425 12.4441 0
-0.29866 12.5805 0 -0.262287 12.6986 0 -0.223998 12.7739 0 -0.184222
12.7517 0 -0.142891 12.5737 0 -0.100285 12.1893 0 -0.053915 11.453
0 -0.0208924 9.85931 0 0.00117988 11.0003 0 0.00300799 11.0022 0
0.00300033 11.0056 0 0.00155726 11.0091 0 -0.00166283 11.0125 0 -0.00696326
11.0157 0 -0.0147748 11.0186 0 -0.0256464 11.0214 0 -0.040272 11.0246
0 -0.0594136 11.029 0 -0.0838228 11.0358 0 -0.114117 11.0465 0
-0.15059 11.0633 0 -0.192936 11.0893 0 -0.239965 11.1276 0 -0.289857
11.1801 0 -0.340593 11.2476 0 -0.389327 11.3315 0 -0.432728 11.432
0 -0.467186 11.5489 0 -0.489067 11.6806 0 -0.493134 11.8262 0
-0.481062 11.9792 0 -0.460581 12.134 0 -0.433215 12.2892 0 -0.400395
12.4432 0 -0.363476 12.5931 0 -0.323632 12.7342 0 -0.281794 12.8562
0 -0.238787 12.9348 0 -0.195896 12.9371 0 -0.150775 12.7877 0
-0.104865 12.4091 0 -0.0558386 11.6656 0 -0.0212433 10.0396 0 0.00287274
11.0021 0 0.00110663 11.0003 0 0.00280599 11.0054 0 0.00134456 11.0087
0 -0.00187431 11.0119 0 -0.00714265 11.0147 0 -0.0148937 11.0171 0
-0.0256845 11.0192 0 -0.0402289 11.0214 0 -0.0593334 11.0243 0 -0.0838366
11.0288 0 -0.114511 11.0364 0 -0.151913 11.0492 0 -0.196143 11.0696
0 -0.246556 11.1011 0 -0.301414 11.1473 0 -0.358301 11.2098 0
-0.414721 11.2892 0 -0.467319 11.3864 0 -0.512344 11.5014 0 -0.54592
11.633 0 -0.564339 11.7792 0 -0.562222 11.9385 0 -0.542238 12.1036
0 -0.513601 12.2683 0 -0.47822 12.4316 0 -0.437801 12.5919 0
-0.393892 12.7466 0 -0.347766 12.8913 0 -0.30044 13.0156 0 -0.254123
13.1154 0 -0.207304 13.1417 0 -0.15795 12.9989 0 -0.109008 12.6233
0 -0.05748 11.8701 0 -0.0215028 10.2115 0 0.00263541 11.0053 0
0.00271449 11.002 0 0.00101835 11.0003 0 0.00116142 11.0084 0 -0.00204955
11.0114 0 -0.00727929 11.0139 0 -0.0149592 11.0159 0 -0.0256482 11.0173
0 -0.0400705 11.0186 0 -0.0590605 11.0201 0 -0.0835174 11.0227 0
-0.114328 11.0275 0 -0.152247 11.0365 0 -0.197699 11.0519 0 -0.250531
11.0768 0 -0.30964 11.115 0 -0.372632 11.1704 0 -0.436441 11.2445
0 -0.498066 11.3372 0 -0.55366 11.449 0 -0.599116 11.5792 0
-0.630397 11.7261 0 -0.643851 11.8869 0 -0.634069 12.0595 0 -0.604892
12.2359 0 -0.567115 12.4096 0 -0.523009 12.5799 0 -0.474528 12.7452
0 -0.423357 12.9036 0 -0.370858 13.0503 0 -0.319925 13.1946 0
-0.26939 13.3149 0 -0.21757 13.3438 0 -0.164361 13.2052 0 -0.112553
12.83 0 -0.0588277 12.0657 0 -0.0216637 10.3745 0 0.000997055 11.0081
0 0.00244956 11.0051 0 0.00251674 11.0019 0 0.000933385 11.0002 4.276e-19
-0.00219673 11.011 0 -0.00738205 11.0132 0 -0.0149848 11.0148 0 -0.0255596
11.0157 0 -0.0398327 11.0161 0 -0.0586548 11.0164 0 -0.0829646 11.0172
0 -0.11373 11.0197 0 -0.151854 11.0252 0 -0.198011 11.0361 0
-0.252444 11.0549 0 -0.314639 11.0854 0 -0.382928 11.1316 0 -0.454168
11.1977 0 -0.524563 11.2849 0 -0.59063 11.3922 0 -0.648078 11.5197
0 -0.692539 11.6659 0 -0.719945 11.8283 0 -0.726836 12.0035 0
-0.707905 12.1888 0 -0.668319 12.3755 0 -0.620513 12.5571 0 -0.567092
12.733 0 -0.510194 12.9022 0 -0.451604 13.0626 0 -0.395108 13.2289
0 -0.339575 13.3922 0 -0.283095 13.512 0 -0.226734 13.5415 0
-0.169899 13.4047 0 -0.115523 13.0284 0 -0.0599008 12.2518 0 -0.0217296
10.5283 0 -0.00233133 11.0106 0 0.000837133 11.0078 0 0.00222861 11.0048
1.8721e-18 0.00232542 11.0018 -1.35388e-18 0.000851393 11.0002 -8.67811e-19 -0.00745972 11.0126 0
-0.0149805 11.0138 0 -0.0254348 11.0142 0 -0.0395431 11.0139 0 -0.0581621
11.0131 0 -0.0822548 11.0124 0 -0.112845 11.0127 0 -0.150941 11.0152
0 -0.197409 11.0219 0 -0.252802 11.0353 0 -0.317085 11.0586 0
-0.389281 11.0957 0 -0.467065 11.1514 0 -0.546407 11.2298 0 -0.622761
11.3315 0 -0.692211 11.4549 0 -0.750104 11.599 0 -0.791935 11.7616
0 -0.813749 11.9396 0 -0.81244 12.1286 0 -0.782917 12.3257 0
-0.731806 12.5216 0 -0.673217 12.7097 0 -0.610012 12.8899 0 -0.544466
13.0615 0 -0.481375 13.2414 0 -0.419776 13.4263 0 -0.357256 13.5877
0 -0.295315 13.705 0 -0.234706 13.733 0 -0.174587 13.5965 0
-0.117962 13.2178 0 -0.0607248 12.4282 0 -0.0217132 10.6729 0 -0.00753526
11.012 0 -0.00242396 11.0101 -3.78911e-18 0.00066178 11.0074 -1.97122e-18 0.0020152 11.0045
9.50396e-19 0.00213745 11.0017 -9.15535e-19 0.000772495 11.0002 0 -0.0149554 11.013 0
-0.0252852 11.0129 0 -0.0392218 11.0119 0 -0.0576174 11.0102 0 -0.0814469
11.0082 0 -0.11177 11.0065 0 -0.14967 11.0064 0 -0.196153 11.0094
0 -0.252014 11.0177 0 -0.317598 11.0344 0 -0.392498 11.0631 0
-0.47519 11.1084 0 -0.562542 11.175 0 -0.649553 11.2674 0 -0.730926
11.3852 0 -0.802401 11.5257 0 -0.859077 11.6871 0 -0.896462 11.8665
0 -0.910882 12.0597 0 -0.899739 12.2618 0 -0.858268 12.4696 0
-0.79466 12.6732 0 -0.724677 12.8665 0 -0.651361 13.0494 0 -0.580702
13.2407 0 -0.511854 13.4392 0 -0.44205 13.6216 0 -0.373035 13.7791
0 -0.305992 13.8921 0 -0.241507 13.9172 0 -0.178486 13.7799 0
-0.119918 13.3977 0 -0.0613307 12.5946 0 -0.0216287 10.8082 0 -0.0149433
11.0122 0 -0.00751373 11.0114 7.97461e-18 -0.00248284 11.0095 0 0.000491632 11.0069
1.9999e-18 0.00181013 11.0043 5.92032e-22 0.00195401 11.0016 0 0.000696759 11.0002 0
-0.0251206 11.0118 0 -0.0388819 11.0102 0 -0.0570459 11.0077 0 -0.0805854
11.0044 0 -0.11058 11.0011 0 -0.148165 10.9985 0 -0.194449 10.9982
0 -0.250405 11.002 0 -0.316679 11.0127 0 -0.393327 11.0337 0
-0.479494 11.0692 0 -0.572957 11.124 0 -0.669679 11.2033 0 -0.763609
11.3112 0 -0.848734 11.4465 0 -0.920586 11.6051 0 -0.974162 11.7844
0 -1.00515 11.9804 0 -1.01034 12.1882 0 -0.987779 12.4025 0
-0.933134 12.6196 0 -0.856223 12.8295 0 -0.774397 13.0262 0 -0.695226
13.2293 0 -0.617982 13.4393 0 -0.539482 13.6351 0 -0.461957 13.813
0 -0.386882 13.9649 0 -0.315151 14.0724 0 -0.247214 14.0936 0
-0.181662 13.9543 0 -0.121441 13.5679 0 -0.0617485 12.751 0 -0.0214889
10.9345 0 -0.0249895 11.0108 0 -0.0147567 11.0113 4.11495e-22 -0.00737403 11.0106
0 -0.00254017 11.0089 -2.10422e-18 0.000331102 11.0065 4.41336e-22 0.00161255 11.004 0
0.00177552 11.0015 0 0.00062423 11.0002 0 -0.0385338 11.0087 0 -0.0564633
11.0054 0 -0.0797023 11.0011 0 -0.109333 10.9963 0 -0.146524 10.9916
0 -0.192454 10.9883 0 -0.248231 10.9881 0 -0.314731 10.9934 0
-0.392378 11.0073 0 -0.480869 11.0337 0 -0.578757 11.0773 0 -0.683016
11.1433 0 -0.7886 11.237 0 -0.888358 11.3621 0 -0.975644 11.5162
0 -1.04596 11.6937 0 -1.09437 11.891 0 -1.11694 12.1032 0
-1.11108 12.3248 0 -1.07561 12.5499 0 -1.00672 12.7748 0 -0.915882
12.9892 0 -0.827311 13.2067 0 -0.740536 13.4289 0 -0.651909 13.6363
0 -0.564233 13.8273 0 -0.479485 13.9989 0 -0.398834 14.1441 0
-0.322889 14.2452 0 -0.25192 14.2617 0 -0.184186 14.1196 0 -0.122583
13.7284 0 -0.0620051 12.8976 0 -0.0213051 11.0522 0 -0.0382471 11.0074
0 -0.0245769 11.0096 -4.40995e-18 -0.0143242 11.0103 0 -0.00723936 11.0098 0
-0.00258403 11.0083 6.40088e-18 0.000179813 11.0061 0 0.00142235 11.0038 0 0.00160195
11.0014 1.90779e-18 0.00055493 11.0002 0 -0.0558803 11.0034 0 -0.0788163 10.9982
0 -0.10807 10.992 0 -0.144818 10.9854 0 -0.190289 10.9795 0
-0.245691 10.9757 0 -0.312071 10.9761 0 -0.390142 10.9836 0 -0.480048
11.0017 0 -0.580991 11.0349 0 -0.690827 11.0883 0 -0.805617 11.1672
0 -0.91922 11.2769 0 -1.02336 11.4208 0 -1.1109 11.5947 0
-1.17752 11.7916 0 -1.21858 12.0068 0 -1.23069 12.2346 0 -1.21203
12.4688 0 -1.16234 12.7032 0 -1.0783 12.934 0 -0.979578 13.1702
0 -0.882153 13.4075 0 -0.781909 13.6272 0 -0.682382 13.8296 0
-0.586101 14.0141 0 -0.494685 14.1784 0 -0.409002 14.3159 0 -0.329324
14.41 0 -0.255723 14.4211 0 -0.186134 14.2756 0 -0.123393 13.8791
0 -0.0621256 13.0347 0 -0.0210878 11.1616 0 -0.0553957 11.0017 0
-0.0375328 11.0059 0 -0.023734 11.0083 -4.81926e-18 -0.0139084 11.0092 -4.6511e-18 -0.0070851
11.009 -8.97197e-18 -0.0026143 11.0077 0 3.78299e-05 11.0057 -4.16776e-18 0.00123941 11.0036
-4.01417e-18 0.00143245 11.0013 1.93199e-18 0.000488754 11.0001 0 -0.0779392 10.9956 0
-0.106812 10.9882 0 -0.143099 10.98 0 -0.188048 10.9717 0 -0.242937
10.9647 0 -0.308945 10.9608 0 -0.387008 10.9625 0 -0.477624 10.973
0 -0.58053 10.9966 0 -0.694332 11.0381 0 -0.816075 11.1028 0