#           x             T
    -0.118947         349.9
    -0.118121       349.894
    -0.117174       349.888
    -0.116087       349.882
     -0.11484       349.877
    -0.113408       349.874
    -0.111764       349.872
    -0.109877       349.871
    -0.107712        349.87
    -0.105227       349.869
    -0.102374       349.869
   -0.0990995        349.87
   -0.0953416       349.873
   -0.0914285       349.879
   -0.0876191       349.893
   -0.0838095       349.921
        -0.08       349.977
   -0.0761904        350.09
   -0.0723809       350.319
   -0.0685715       350.779
   -0.0649271       351.648
    -0.061624       353.137
    -0.058655       355.463
   -0.0559862       358.774
   -0.0535874       363.048
   -0.0514313       368.094
   -0.0494932       373.601
   -0.0477512       379.128
   -0.0461853       384.153
   -0.0447779       388.279
   -0.0435128       391.363
   -0.0423757        393.49
   -0.0413536       394.872
   -0.0404349       395.772
     -0.03925       396.428
     -0.03775       396.807
     -0.03625       396.914
     -0.03475       396.851
     -0.03325       396.705
     -0.03175       396.528
     -0.03025       396.348
     -0.02875       396.182
     -0.02725       396.035
     -0.02575       395.913
   -0.0243994       395.818
   -0.0231362       395.746
    -0.021743       395.687
   -0.0202065       395.643
   -0.0189203       395.619
   -0.0180315       395.609
   -0.0166427       395.603
   -0.0145812       395.621
    -0.012414        395.66
   -0.0110231         395.7
   -0.0100402       395.738
  -0.00847254       395.811
  -0.00677747        395.91
  -0.00524316       395.987
  -0.00385435       396.061
  -0.00288618       396.116
  -0.00228892       396.151
  -0.00133333       396.208
            0        396.28
   0.00133333       396.344
     0.002289       396.385
   0.00288966       396.411
   0.00386381       396.446
   0.00525697       396.486
   0.00679351       396.517
    0.0084882       396.485
    0.0100473       396.442
    0.0110276       396.412
    0.0124188       396.374
    0.0145859       396.334
    0.0166548       396.214
    0.0180384       396.138
    0.0189282       396.099
    0.0202225       396.069
    0.0217568        396.11
    0.0231456       396.188
    0.0244027       396.252
      0.02575       396.375
      0.02725        396.56
      0.02875       396.791
      0.03025       397.037
      0.03175       397.247
      0.03325       397.359
      0.03475       397.222
      0.03625       396.614
      0.03775       395.324
      0.03925       393.449
    0.0404349       391.404
    0.0413536       389.389
    0.0423757       386.999
    0.0435128       384.027
    0.0447779       380.434
    0.0461853       376.283
    0.0477511       371.757
    0.0494932       367.143
    0.0514312       362.768
    0.0535874       358.921
    0.0559862       355.811
    0.0586549       353.519
     0.061624       351.977
    0.0649271       351.011
    0.0685714       350.448
    0.0723809       350.149
    0.0761904           350
         0.08       349.926
    0.0838095       349.891
     0.087619       349.874
    0.0914285       349.867
    0.0953419       349.865
    0.0991002       349.864
     0.102374       349.865
     0.105227       349.866
     0.107713       349.867
     0.109878       349.869
     0.111765       349.871
     0.113408       349.873
      0.11484       349.876
     0.116088       349.881
     0.117175       349.887
     0.118122       349.893
     0.118947       349.898
     0.119665       349.902
