# vtk DataFile Version 2.0
sampleSurface
ASCII
DATASET POLYDATA
POINTS 15978 float
-4.26165e-19 0.000133477 0 -4.18079e-19 -0.000798814 0 -4.33681e-19 0.001 0 -4.09379e-19 -0.00180187
0 -0.00181681 0.000361473 0 0.00181681 0.000361473 0 -0.00181396 -0.000575145 0
0.00181396 -0.000575145 0 -0.00181945 0.00123202 0 0.00181945 0.00123202 0 -0.00181089
-0.00158285 0 0.00181089 -0.00158285 0 -4.00018e-19 -0.00288105 0 -0.00180759 -0.00266704
0 0.00180759 -0.00266704 0 -0.00351565 8.15481e-05 0 0.00351565 8.15481e-05 0
-0.00351186 -0.000939823 0 0.00351186 -0.000939823 0 -0.00351918 0.00103087 0 0.00351918
0.00103087 0 -0.00352245 0.00191322 0 0.00352245 0.00191322 0 -3.89947e-19 -0.00404214
0 -0.00350777 -0.00203871 0 0.00350777 -0.00203871 0 -0.00180405 -0.00383352 0
0.00180405 -0.00383352 0 -0.00350338 -0.00322101 0 0.00350338 -0.00322101 0 -0.005
8.60602e-05 0 0.005 8.60602e-05 0 -0.005 -0.00103629 0 0.005 -0.00103629
0 -0.005 0.00112923 0 0.005 0.00112923 0 -3.79112e-19 -0.00529135 0
-0.00180023 -0.00508853 0 0.00180023 -0.00508853 0 -0.005 0.00209882 0 0.005
0.00209882 0 -0.005 -0.00224382 0 0.005 -0.00224382 0 -0.00349866 -0.00449304
0 0.00349866 -0.00449304 0 -0.005 0.003 0 0.005 0.003 0
-0.005 -0.003543 0 0.005 -0.003543 0 -0.00637208 2.82617e-05 0 0.00639053
4.25732e-05 0 -0.00637208 0.00114892 0 -0.00637208 -0.00117745 0 0.00639053 -0.00116311
0 0.00639053 0.00116321 0 -3.67455e-19 -0.00663538 0 -0.00179612 -0.00643879 0
0.00179612 -0.00643879 0 -0.00637208 0.00219052 0 0.00639053 0.00220479 0 -0.00349357
-0.00586162 0 0.00349357 -0.00586162 0 -0.00637208 -0.00247467 0 0.00639053 -0.00246031
0 -0.005 -0.00494079 0 0.005 -0.00494079 0 -0.00637208 0.00315864 0
0.00639053 0.00317289 0 -0.00637208 -0.00387036 0 0.00639053 -0.00385597 0 -0.00637208
0.00405846 0 0.00639053 0.00407269 0 -0.00778421 -7.99569e-05 0 0.00781802 -5.3679e-05
0 -0.00778421 0.00112388 0 0.00781802 0.00115011 0 -0.00778421 -0.00137517 0
0.00781802 -0.00134884 0 -3.54912e-19 -0.00808142 0 -0.0017917 -0.00789154 0 0.0017917
-0.00789154 0 -0.00778421 0.0022428 0 -0.0034881 -0.00733407 0 0.0034881 -0.00733407
0 0.00781802 0.00226899 0 -0.005 -0.00644467 0 0.005 -0.00644467 0
-0.00778421 -0.00276868 0 0.00781802 -0.0027423 0 -0.00637208 -0.00537197 0 0.00639053
-0.00535755 0 -0.00778421 0.00328278 0 0.00781802 0.00330893 0 -0.00778421 0.00424939
0 -0.00778421 -0.00426796 0 0.00781802 -0.00424152 0 0.00781802 0.00427551 0
-0.00923755 -0.000243565 0 0.00928347 -0.000207818 0 -0.00923755 0.00104957 0 -0.00778421
0.00514782 0 0.00928347 0.00108525 0 0.00781802 0.0051739 0 -0.00923755 -0.00163485
0 0.00928347 -0.00159903 0 -0.00637208 -0.00698755 0 0.00639053 -0.0069731 0
-0.005 -0.0080627 0 0.005 -0.0080627 0 -0.00923755 0.00225148 0 0.00928347
0.0022871 0 -0.00348222 -0.00891827 0 0.00348222 -0.00891827 0 -0.00178695 -0.00945455
0 0.00178695 -0.00945455 0 -3.41418e-19 -0.00963721 0 -0.00923755 -0.00313172 0
-0.00778421 -0.00588103 0 0.00781802 -0.00585453 0 0.00928347 -0.00309583 0 -0.00923755
0.0033686 0 0.00928347 0.00340416 0 -0.00923755 0.00440692 0 0.00928347 0.00444243
0 -0.00923755 -0.00474221 0 0.00928347 -0.00470623 0 -0.00923755 0.00537198 0
-0.0107333 -0.000467921 0 0.00928347 0.00540745 0 -0.0107333 0.000921062 0 0.0107879
-0.000425364 0 0.00639053 -0.00871127 0 -0.00637208 -0.00872575 0 0.0107879 0.000963535
0 -0.00778421 -0.00761653 0 0.00781802 -0.00758997 0 -0.0107333 -0.00196233 0
0.0107879 -0.00191968 0 -0.0107333 0.00221206 0 -0.005 -0.00980352 0 0.005
-0.00980352 0 0.0107879 0.00225445 0 -0.00923755 0.00626897 0 -0.00347589 -0.0106227
0 0.00347589 -0.0106227 0 0.00928347 0.00630439 0 -0.0107333 0.00341198 0
-0.00178183 -0.0111362 0 0.00178183 -0.0111362 0 -0.00923755 -0.00647493 0 0.00928347
-0.00643887 0 -3.26899e-19 -0.0113111 0 -0.0107333 -0.00357015 0 0.0107879 0.00345431
0 0.0107879 -0.00352741 0 -0.0107333 0.00452726 0 0.0107879 0.00456952 0
-0.0107333 -0.00530001 0 0.0107879 -0.00525717 0 -0.0107333 0.00556386 0 0.0107879
0.00560606 0 -0.000743369 0.0122055 0 0.000743369 0.0122055 0 -0.00778421 -0.00948375
0 0.00781802 -0.00945713 0 -0.0122727 0.000733061 0 -0.0122727 -0.000758799 0
0.0123323 -0.000712262 0 0.0123323 0.0007795 0 0.00639053 -0.0105814 0 -0.00637208
-0.0105959 0 -0.00923755 -0.00833916 0 -0.0122727 0.00211968 0 0.00928347 -0.00830301
0 -0.0122727 -0.00236389 0 0.0123323 0.00216603 0 0.0123323 -0.00231725 0
-0.0107333 0.00652734 0 0.0107879 0.00656947 0 -0.005 -0.0116765 0 0.005
-0.0116765 0 -0.0122727 0.00340848 0 0.0123323 0.00345474 0 -0.000741126 0.0128136
0 0.000741126 0.0128136 0 -0.0107333 -0.00716117 0 0.0107879 -0.00711821 0
-0.00346908 -0.0124565 0 0.00346908 -0.0124565 0 -0.0122727 -0.00409081 0 0.0123323
-0.00404405 0 -0.0107333 0.00742284 0 -0.00177633 -0.0129455 0 0.00177633 -0.0129455
0 -0.0122727 0.00460636 0 -3.11279e-19 -0.013112 0 0.0107879 0.00746492 0
-0.002 0.013 0 0.002 0.013 0 0.0123323 0.00465255 0 -0.0007387
0.0134712 0 0.0007387 0.0134712 0 -0.0122727 0.00571974 0 0.0123323 0.00576585
0 -0.0122727 -0.00594879 0 0.0123323 -0.00590191 0 -0.002 0.0135849 0
0.002 0.0135849 0 -0.0138571 0.000479853 0 -0.00923755 -0.0103449 0 0.00928347
-0.0103086 0 0.00781802 -0.011466 0 -0.00778421 -0.0114927 0 -0.0138571 -0.00112242
0 0.0139177 0.000527252 0 0.0139177 -0.00107491 0 -0.0138571 0.0019691 0
-0.0122727 0.00675458 0 0.0139177 0.00201639 0 0.0123323 0.00680062 0 -0.0107333
-0.00916358 0 0.00639053 -0.0125934 0 0.0107879 -0.0091205 0 -0.00637208 -0.012608
0 -0.0138571 -0.0028463 0 0.0139177 -0.00279868 0 -0.000736077 0.0141824 0
0.000736077 0.0141824 0 -0.00319452 0.0138829 0 0.00320133 0.0138879 0 -0.0138571
0.00335328 0 0.0139177 0.00340049 0 -0.002 0.0142174 0 0.002 0.0142174
0 -0.0122727 0.00771641 0 0.0123323 0.00776239 0 -0.005 -0.0136916 0
0.005 -0.0136916 0 -0.0138571 0.00463982 0 -0.0122727 -0.0079478 0 -0.0138571
-0.00470103 0 0.0123323 -0.00790078 0 0.0139177 -0.00465328 0 0.0139177 0.00468694
0 -0.00319452 0.0144678 0 0.00320133 0.0144728 0 -0.00346175 -0.0144295 0
0.00346175 -0.0144295 0 -0.00073324 0.0149515 0 0.00073324 0.0149515 0 -0.0122727
0.00861039 0 -0.00177041 -0.0148921 0 0.00177041 -0.0148921 0 -0.002 0.0149014
0 0.002 0.0149014 0 -0.0138571 0.0058356 0 -2.94473e-19 -0.0150496 0
0.0123323 0.00865631 0 0.0139177 0.00588264 0 -0.0138571 -0.00669653 0 0.0139177
-0.00664864 0 -0.00319452 0.0151003 0 0.00320133 0.0151053 0 -0.0154877 0.000155282
0 -0.0138571 0.00694702 0 -0.00451419 0.0148583 0 0.0045263 0.0148673 0
0.00928347 -0.0124665 0 -0.00923755 -0.0125028 0 0.0155453 0.000200444 0 -0.0154877
-0.00156548 0 0.0139177 0.00699399 0 -0.0154877 0.00175466 0 -0.0107333 -0.011318
0 0.0107879 -0.0112748 0 0.0155453 -0.00152021 0 0.0155453 0.00179972 0
0.00781802 -0.0136273 0 -0.00778421 -0.0136541 0 -0.002 0.0156411 0 0.002
0.0156411 0 -0.000730172 0.0157833 0 0.000730172 0.0157833 0 -0.0154877 0.0032412
0 -0.0154877 -0.00341685 0 0.0155453 0.00328617 0 -0.0122727 -0.0100985 0
0.0155453 -0.00337146 0 0.0123323 -0.0100514 0 -0.0138571 0.00798004 0 0.0139177
0.00802694 0 0.00639053 -0.0147581 0 -0.00637208 -0.0147727 0 -0.00451419 0.0154432
0 0.0045263 0.0154521 0 -0.00319452 0.0157843 0 0.00320133 0.0157893 0
-0.0154877 0.00462288 0 0.0155453 0.00466776 0 -0.0154877 -0.00540874 0 -0.0138571
-0.00884348 0 0.0155453 -0.00536322 0 0.0139177 -0.00879545 0 -0.0138571 0.00894019
0 -0.002 0.0164411 0 0.002 0.0164411 0 0.0139177 0.00898702 0
-0.0154877 0.00590709 0 -0.005 -0.0158596 0 0.005 -0.0158596 0 0.0155453
0.00595189 0 -0.00451419 0.0160757 0 -0.000726854 0.0166828 0 0.000726854 0.0166828
0 0.0045263 0.0160846 0 -0.00319452 0.016524 0 0.00320133 0.016529 0
-0.00345386 -0.0165523 0 0.00345386 -0.0165523 0 -0.0138571 0.0098326 0 -0.00597213
0.0159359 0 0.00598764 0.0159474 0 -0.0154877 0.00710071 0 0.0139177 0.00987937
0 -0.00176404 -0.0169864 0 0.00176404 -0.0169864 0 0.0155453 0.00714543 0
-2.76391e-19 -0.0171343 0 -0.0171658 -0.000247278 0 0.0172162 -0.000207752 0 -0.0171658
0.00147028 0 -0.0154877 -0.0075518 0 0.0155453 -0.00750615 0 0.0172162 0.00150971
0 -0.0171658 -0.00209519 0 0.0172162 -0.00205556 0 0.0107879 -0.0135925 0
-0.0107333 -0.0136359 0 -0.00451419 0.0167597 0 0.0045263 0.0167686 0 -0.002
0.0173062 0 0.002 0.0173062 0 -0.0171658 0.00306667 0 -0.0122727 -0.0124125
0 0.00928347 -0.0147881 0 0.0123323 -0.0123652 0 -0.00923755 -0.0148246 0
0.0172162 0.00310601 0 -0.0154877 0.00821012 0 -0.00597213 0.0165208 0 0.00598764
0.0165323 0 0.0155453 0.00825477 0 -0.00319452 0.017324 0 0.00320133 0.017329
0 -0.0171658 -0.00408336 0 -0.000723266 0.0176555 0 0.000723266 0.0176555 0
0.0172162 -0.00404362 0 -0.0171658 0.00455044 0 0.00781802 -0.0159527 0 -0.00778421
-0.0159796 0 -0.0138571 -0.0111534 0 0.0139177 -0.0111052 0 0.0172162 0.0045897
0 -0.0154877 0.00924127 0 -0.00451419 0.0174994 0 0.0045263 0.0175084 0
0.0155453 0.00928585 0 -0.0171658 0.00592954 0 -0.00597213 0.0171533 0 0.00598764
0.0171648 0 0.0172162 0.00596872 0 0.00639053 -0.0170872 0 -0.00637208 -0.0171018
0 -0.0171658 -0.00622243 0 0.0172162 -0.00618257 0 -0.002 0.0182418 0
0.002 0.0182418 0 -0.0154877 -0.00985753 0 0.0155453 -0.00981172 0 -0.00319452
0.0181891 0 0.00320133 0.0181941 0 -0.0154877 0.0101997 0 0.0155453 0.0102442
0 -0.0171658 0.00721136 0 0.0172162 0.00725047 0 -0.000719385 0.0187075 0
0.000719385 0.0187075 0 -0.00758282 0.0171264 0 0.00759938 0.0171387 0 -0.00597213
0.0178373 0 0.00598764 0.0178488 0 -0.00451419 0.0182994 0 0.0045263 0.0183083
0 -0.005 -0.0181922 0 0.005 -0.0181922 0 -0.018893 -0.00073496 0
-0.018893 0.0011094 0 0.0189314 -0.000704684 0 0.0189314 0.0011396 0 -0.0154877
0.0110905 0 -0.018893 -0.0027193 0 -0.018893 0.00282365 0 -0.0171658 0.00840275
0 0.0189314 -0.00268894 0 0.0155453 0.0111349 0 0.0189314 0.00285377 0
-0.00344538 -0.0188361 0 0.00344538 -0.0188361 0 -0.0171658 -0.00852385 0 0.0172162
0.00844179 0 0.0172162 -0.00848386 0 -0.00758282 0.0177113 0 0.00759938 0.0177235
0 -0.0122727 -0.0149021 0 0.0123323 -0.0148546 0 -0.00175719 -0.0192397 0
[...]
CELL_DATA 15677
FIELD attributes 1
U 3 15677 float
-0.304871 10.2652 0 0.190475 10.9192 0 -0.101143 9.44667 0 0.0315568 10.9901
0 0.118845 10.7323 0 -0.0119271 8.75836 0 0.0455279 11.0075 0
0.0144843 10.9815 0 0.0577132 10.4719 0 0.0115306 8.22934 0 0.0466952
11.0122 0 0.0433908 11.0311 0 0.0260933 10.9286 0 0.0319079 10.1908
0 0.0113234 7.85612 0 0.0440124 11.0135 0 0.0424064 11.0439 0
0.0428084 11.0209 0 0.0332382 10.8603 0 0.0213715 9.90293 0 0.00644168
7.61194 0 0.0413775 11.0136 0 0.0404478 11.0462 0 0.0402102 11.0448
0 0.0398955 11.0049 0 0.0328246 10.7692 0 0.015953 9.6376 0
0.00250544 7.45876 0 0.0386369 11.0131 0 0.038991 11.0453 0 0.039386
11.0533 0 0.0385055 11.0445 0 0.035853 10.9826 0 0.0288603 10.6571
0 0.0121636 9.41247 0 0.000563299 7.36225 0 0.0356117 11.0123 0
0.0373756 11.0435 0 0.0387178 11.056 0 0.0384539 11.0587 0 0.0360562
11.0421 0 0.0318454 10.9528 0 0.0240819 10.5327 0 0.00902292 9.23748
0 1.68037e-05 7.30012 0 0.0323303 11.0113 0 0.035466 11.0411 0
0.0376291 11.0557 0 0.0378942 11.064 0 0.0361258 11.0634 0 0.0329228
11.0364 0 0.0284251 10.9174 0 0.0194918 10.3981 0 0.00646148 9.10673
0 -0.000236994 7.25754 0 0.0288547 11.0101 0 0.0333353 11.0382 0
0.0362322 11.054 0 0.0369494 11.0652 0 0.035568 11.0717 0 0.0329714
11.0663 0 0.0298276 11.0289 0 0.0254202 10.8759 0 0.0154662 10.2694
0 0.00440743 9.01187 0 -0.000467588 7.23306 0 0.0252625 11.0089 0
0.0310065 11.0348 0 0.034576 11.0514 0 0.0357322 11.0644 0 0.0346599
11.0746 0 0.0324199 11.0785 0 0.0297853 11.0688 0 0.0268404 11.0213
0 0.0222146 10.8306 0 0.0118452 10.1594 0 0.00266697 8.94595 0
-0.00067144 7.22152 0 0.021549 11.0077 0 0.0284851 11.0312 0 0.0326526
11.0481 0 0.0342501 11.0623 0 0.033463 11.0747 0 0.0314761 11.0833
0 0.0291264 11.0853 0 0.0266396 11.0724 0 0.0235537 11.0144 0
0.0185197 10.7846 0 0.00845081 10.0705 0 0.00110133 8.9039 0 -0.00108717
7.22352 0 0.0178432 11.0065 0 0.0258769 11.0273 0 0.0304482 11.0442
0 0.0324869 11.0592 0 0.0319813 11.0731 0 0.0301944 11.0844 0
0.0279956 11.0924 0 0.0257198 11.0938 0 0.0231548 11.0784 0 0.0198678
11.009 0 0.0143996 10.7411 0 0.0051425 10.0053 0 -0.000541296 8.88293
0 -0.00170769 7.23881 0 0.0146466 11.0053 0 0.0231922 11.0233 0
0.0279899 11.0398 0 0.0304251 11.0554 0 0.030206 11.0703 0 0.0285909
11.0835 0 0.0264635 11.0948 0 0.0242298 11.1033 0 0.0218285 11.105
0 0.0191331 11.0875 0 0.0156779 11.0062 0 0.00992431 10.7052 0
0.00166915 9.96283 0 -0.00221206 8.88103 0 -0.00237464 7.26776 0 0.0120665
11.0043 0 0.0206481 11.0196 0 0.0253129 11.0351 0 0.0280514 11.0508
0 0.0281208 11.0666 0 0.0266606 11.0811 0 0.0245558 11.0946 0
0.0222616 11.107 0 0.0198214 11.117 0 0.0172306 11.1196 0 0.0143897
11.1004 0 0.0107804 11.0078 0 0.00503711 10.6801 0 -0.00191183 9.94211
0 -0.0041016 8.89745 0 -0.00320092 7.31049 0 0.00991232 11.0034 0
0.0183832 11.0164 0 0.0227134 11.0306 0 0.0253708 11.0457 0 0.0257059
11.062 0 0.0243868 11.0776 0 0.0222698 11.0926 0 0.019844 11.1075
0 0.017241 11.122 0 0.0145302 11.1342 0 0.0117369 11.1386 0
0.00873959 11.1183 0 0.0050827 11.0154 0 -0.000325168 10.6683 0 -0.00577631
9.94214 0 -0.00619033 8.93117 0 -0.00411766 7.36721 0 0.00824339 11.0027
0 0.0163616 11.0136 0 0.0203641 11.0266 0 0.0226936 11.0407 0
0.0229507 11.0566 0 0.0217484 11.0731 0 0.0195898 11.0893 0 0.0169747
11.1059 0 0.0141145 11.1232 0 0.0111372 11.1406 0 0.00814178 11.1559
0 0.00514572 11.1628 0 0.00207046 11.1421 0 -0.00145041 11.0308 0
-0.00619131 10.6711 0 -0.00996475 9.96198 0 -0.00849005 8.98214 0 -0.00511524
7.43769 0 0.00685929 11.0021 0 0.0144587 11.0112 0 0.0182026 11.0231
0 0.0202208 11.0362 0 0.0201584 11.0511 0 0.0187304 11.0675 0
0.016496 11.0848 0 0.0136392 11.1027 0 0.010437 11.1219 0 0.00707551
11.1424 0 0.00370494 11.1635 0 0.000426765 11.1827 0 -0.00269958 11.193
0 -0.00569967 11.173 0 -0.00884012 11.0556 0 -0.0125991 10.6897 0
-0.0145102 10.0007 0 -0.0109854 9.04955 0 -0.00618073 7.52176 0 0.00572268
11.0017 0 0.0127718 11.0093 0 0.0161858 11.0201 0 0.0178939 11.0321
0 0.0175504 11.0461 0 0.0156602 11.0617 0 0.0129749 11.0791 0
0.00982104 11.0982 0 0.00619308 11.1188 0 0.00233512 11.1413 0 -0.00155283
11.1659 0 -0.00531395 11.1916 0 -0.00880559 11.2157 0 -0.0119184 11.2302
0 -0.0146266 11.2119 0 -0.017115 11.091 0 -0.0195634 10.7245 0
-0.0194094 10.0576 0 -0.0136693 9.13295 0 -0.00729571 7.61872 0 0.00478956
11.0014 0 0.0112504 11.0078 0 0.0143305 11.0174 0 0.0157156 11.0285
0 0.0150783 11.0414 0 0.0127883 11.0562 0 0.00940671 11.0729 0
0.005513 11.0922 0 0.00136926 11.114 0 -0.00310268 11.1381 0 -0.00764925
11.165 0 -0.0120612 11.1945 0 -0.0161418 11.2258 0 -0.0196997 11.2555
0 -0.0225901 11.2752 0 -0.0247517 11.2599 0 -0.0262761 11.1381 0
-0.0270698 10.7756 0 -0.024643 10.1319 0 -0.0165182 9.23154 0 -0.00846112
7.72794 0 0.00404911 11.0011 0 0.00988316 11.0066 0 0.0126406 11.0152
0 0.0136921 11.0252 0 0.0127604 11.0372 0 0.0100697 11.051 0
0.00608189 11.0669 0 0.00118152 11.0855 0 -0.00403294 11.1076 0 -0.00925004
11.1329 0 -0.0146096 11.1615 0 -0.0198449 11.1936 0 -0.0247081 11.2291
0 -0.0289552 11.2667 0 -0.0323634 11.303 0 -0.0347704 11.3287 0
-0.0360778 11.3177 0 -0.0362939 11.1976 0 -0.0350922 10.8429 0 -0.0301909
10.2226 0 -0.0195168 9.3446 0 -0.00965624 7.84866 0 0.00348117 11.001
0 0.00871679 11.0056 0 0.0111021 11.0133 0 0.0118309 11.0224 0
0.0106083 11.0333 0 0.00753137 11.046 0 0.0029511 11.061 0 -0.00282698
11.0788 0 -0.00942386 11.1002 0 -0.0160952 11.1258 0 -0.0224463 11.1558
0 -0.0287001 11.1898 0 -0.0345515 11.228 0 -0.0397065 11.2702 0
-0.0438905 11.3151 0 -0.0468702 11.3588 0 -0.0484703 11.3915 0 -0.0485696
11.3859 0 -0.047108 11.2697 0 -0.0435884 10.9259 0 -0.0360138 10.3289
0 -0.0226236 9.47103 0 -0.0108507 7.97967 0 0.00304088 11.0008 0
0.00776212 11.0048 0 0.00975866 11.0117 0 0.0101302 11.0199 0 0.00863168
11.0298 0 0.00519194 11.0415 0 4.92645e-05 11.0553 0 -0.00657355 11.0721
0 -0.0143794 11.0926 0 -0.0228854 11.1175 0 -0.0311367 11.1478 0
-0.0386421 11.1833 0 -0.0457215 11.2236 0 -0.0520237 11.2689 0 -0.0572244
11.3188 0 -0.0610417 11.3717 0 -0.0632409 11.4235 0 -0.0636538 11.4639
0 -0.0621561 11.4648 0 -0.0586381 11.3546 0 -0.0524937 11.0237 0
-0.0420398 10.4493 0 -0.0257894 9.60958 0 -0.0120309 8.11974 0 0.00269336
11.0007 0 0.00697712 11.0043 0 0.00864175 11.0105 0 0.00865207 11.0178
0 0.00683513 11.0266 0 0.00306513 11.0372 0 -0.00259704 11.0499 0
-0.0100149 11.0655 0 -0.0189777 11.0848 0 -0.0290929 11.1088 0 -0.0397201
11.1381 0 -0.0496373 11.174 0 -0.0582389 11.2161 0 -0.0659756 11.2638
0 -0.072466 11.3171 0 -0.0773803 11.3754 0 -0.0804436 11.437 0
-0.0814441 11.4976 0 -0.0802398 11.5463 0 -0.0767245 11.5545 0 -0.070765
11.4519 0 -0.0617001 11.1355 0 -0.048211 10.5827 0 -0.0289767 9.7589
0 -0.0131857 8.26753 0 0.00241475 11.0006 0 0.00632903 11.0038 0
0.00771915 11.0095 0 0.00743336 11.016 0 0.00528988 11.0238 0 0.00116007
11.0333 0 -0.00496818 11.0448 0 -0.0131161 11.059 0 -0.0231653 11.077
0 -0.0348188 11.0996 0 -0.0475352 11.1279 0 -0.0604664 11.1628 0
-0.0720598 11.2053 0 -0.0815934 11.255 0 -0.0897103 11.311 0 -0.0960267
11.3731 0 -0.100226 11.4406 0 -0.102068 11.5116 0 -0.101388 11.5813
0 -0.098099 11.6387 0 -0.092144 11.655 0 -0.083366 11.5612 0
-0.0711008 11.2601 0 -0.0544549 10.7277 0 -0.0321494 9.91753 0 -0.0142946
8.42165 0 0.00218832 11.0006 0 0.00578979 11.0035 0 0.0069511 11.0087
0 0.0064339 11.0146 0 0.00403306 11.0215 0 -0.000446069 11.0298 0
-0.00705014 11.0399 0 -0.0158505 11.0528 0 -0.0268977 11.0693 0 -0.0399972
11.0903 0 -0.0547128 11.1171 0 -0.0703005 11.1508 0 -0.0856511 11.1922
0 -0.098825 11.2424 0 -0.109005 11.3008 0 -0.117109 11.3659 0
-0.122776 11.4376 0 -0.125736 11.5149 0 -0.125815 11.5955 0 -0.122932
11.6747 0 -0.117071 11.7411 0 -0.108235 11.7658 0 -0.0963009 11.6817
0 -0.0806085 11.396 0 -0.060692 10.8826 0 -0.035269 10.0839 0
-0.0153461 8.58064 0 0.00200215 11.0005 0 0.00533821 11.0032 0 0.00630795
11.008 0 0.00561044 11.0134 0 0.00301871 11.0196 0 -0.00172056 11.0268
0 -0.00875782 11.0355 0 -0.0181983 11.0468 0 -0.0301392 11.0616 0
-0.0445709 11.0809 0 -0.061171 11.1059 0 -0.0793077 11.1379 0 -0.097977
11.1779 0 -0.115761 11.2269 0 -0.130291 11.286 0 -0.140698 11.354
0 -0.148269 11.4292 0 -0.152705 11.5111 0 -0.153817 11.5985 0
-0.151534 11.6891 0 -0.14588 11.7778 0 -0.136945 11.8531 0 -0.124812
11.8864 0 -0.109406 11.8124 0 -0.0901095 11.5419 0 -0.066848 11.046
0 -0.0383027 10.2565 0 -0.0163423 8.74311 0 0.0018475 11.0004 0
0.00495768 11.0029 0 0.00576623 11.0074 0 0.00492933 11.0124 0 0.00219896
11.0179 0 -0.00271941 11.0243 0 -0.0100657 11.0317 0 -0.0200637 11.0413
0 -0.0328627 11.0542 0 -0.0484931 11.0715 0 -0.0668368 11.0945 0
-0.0873855 11.1243 0 -0.109251 11.1625 0 -0.131116 11.21 0 -0.151218
11.2678 0 -0.166738 11.3368 0 -0.176812 11.4153 0 -0.1832 11.5012
0 -0.185709 11.5937 0 -0.184281 11.6915 0 -0.178988 11.7921 0
-0.169989 11.8901 0 -0.157486 11.9742 0 -0.141675 12.0159 0 -0.12253
11.952 0 -0.0994927 11.6963 0 -0.0728606 11.2162 0 -0.04123 10.4337
0 -0.0171989 8.90794 0 0.00171789 11.0004 0 0.00463514 11.0027 0
0.00530734 11.007 0 0.00436365 11.0115 0 0.00153528 11.0165 0 -0.00349931
11.0221 0 -0.011046 11.0285 0 -0.0214317 11.0365 0 -0.0349575 11.0472
0 -0.0517273 11.0622 0 -0.0716492 11.0829 0 -0.0944412 11.1103 0
-0.119346 11.1461 0 -0.145159 11.1915 0 -0.170205 11.2477 0 -0.192372
11.3153 0 -0.208353 11.3952 0 -0.217365 11.4851 0 -0.221783 11.5822
0 -0.221581 11.6857 0 -0.216873 11.794 0 -0.207902 11.9043 0
-0.194984 12.0114 0 -0.178455 12.1037 0 -0.158623 12.1535 0 -0.135528
12.0995 0 -0.108659 11.8577 0 -0.0786865 11.3916 0 -0.0439826 10.6142
0 -0.0185098 9.07236 0 0.00160845 11.0004 0 0.00436021 11.0026 0
0.00491624 11.0066 0 0.00389194 11.0108 0 0.000996791 11.0154 0 -0.00410593
11.0202 0 -0.0117697 11.0257 0 -0.0223979 11.0323 0 -0.0364222 11.0411
0 -0.0541417 11.0535 0 -0.0755591 11.0713 0 -0.100395 11.096 0
-0.128144 11.129 0 -0.157731 11.1717 0 -0.187586 11.2257 0 -0.21566
11.2917 0 -0.239446 11.3703 0 -0.255174 11.462 0 -0.262251 11.5639
0 -0.263811 11.6726 0 -0.260046 11.7871 0 -0.251283 11.9056 0
-0.237962 12.0252 0 -0.220574 12.1408 0 -0.1996 12.2408 0 -0.175459
12.2981 0 -0.148261 12.2534 0 -0.117535 12.0244 0 -0.0842548 11.5708
0 -0.0471918 10.7959 0 -0.0197358 9.26606 0 0.00151536 11.0003 0
0.00412468 11.0024 0 0.00458289 11.0063 0 0.00349685 11.0102 0 0.000558826
11.0143 0 -0.00457586 11.0186 0 -0.0122937 11.0232 0 -0.0230534 11.0286
0 -0.0373839 11.0357 0 -0.0557516 11.0456 0 -0.0784063 11.0602 0
-0.105183 11.0816 0 -0.135542 11.1114 0 -0.168684 11.151 0 -0.203165
11.2019 0 -0.237016 11.2655 0 -0.267756 11.3426 0 -0.292535 11.4331
0 -0.307126 11.5374 0 -0.311261 11.6518 0 -0.308981 11.7723 0
-0.30075 11.8976 0 -0.287141 12.0259 0 -0.268817 12.1543 0 -0.246454
12.2776 0 -0.22067 12.3845 0 -0.191994 12.4486 0 -0.160617 12.4123
0 -0.126031 12.1951 0 -0.0899492 11.7518 0 -0.0500159 10.999 0
-0.0200572 9.46511 0 0.00143562 11.0003 0 0.00392206 11.0023 0 0.00429596
11.006 0 0.00316439 11.0097 0 0.000201674 11.0135 0 -0.00493822 11.0173
0 -0.0126635 11.0211 0 -0.0234713 11.0255 0 -0.037961 11.031 0
-0.0567248 11.0387 0 -0.0802252 11.0503 0 -0.108605 11.0677 0 -0.141453
11.0935 0 -0.177885 11.1294 0 -0.216756 11.1768 0 -0.2562 11.2373
0 -0.293789 11.3118 0 -0.326643 11.4009 0 -0.351592 11.5043 0
-0.363999 11.6218 0 -0.364061 11.749 0 -0.356887 11.8811 0 -0.343263
12.0169 0 -0.324033 12.1544 0 -0.3001 12.2909 0 -0.272316 12.421
0 -0.241429 12.5338 0 -0.208074 12.6037 0 -0.172474 12.5751 0
-0.134349 12.3679 0 -0.0953603 11.9541 0 -0.0518553 11.2217 0 -0.0204579
9.65973 0 0.00136678 11.0003 0 0.00374716 11.0022 0 0.00404785 11.0057
0 0.00288469 11.0092 0 -9.04484e-05 11.0127 0 -0.00521615 11.0161 0
-0.012915 11.0193 0 -0.0237097 11.0227 0 -0.0382482 11.0268 0 -0.0572153
11.0327 0 -0.0812349 11.0415 0 -0.110717 11.0552 0 -0.14563 11.0762
0 -0.185221 11.1074 0 -0.228189 11.1507 0 -0.27298 11.2072 0
-0.317248 11.2784 0 -0.358115 11.365 0 -0.392322 11.4673 0 -0.416421
11.5842 0 -0.425435 11.7154 0 -0.420199 11.8553 0 -0.407043 11.9988
0 -0.387107 12.1444 0 -0.361529 12.2904 0 -0.331443 12.4339 0
-0.297868 12.5698 0 -0.261669 12.6875 0 -0.223538 12.7624 0 -0.1839
12.7399 0 -0.142685 12.5616 0 -0.10017 12.1768 0 -0.0538695 11.4405
0 -0.0208868 9.84783 0 0.0013075 11.0003 0 0.00359542 11.0021 0
0.00383359 11.0055 0 0.0026478 11.0088 0 -0.000330008 11.0121 0 -0.00542801
11.015 0 -0.0130768 11.0177 0 -0.0238142 11.0203 0 -0.0383208 11.0232
0 -0.0573462 11.0273 0 -0.0816346 11.0337 0 -0.111802 11.044 0
-0.148148 11.0604 0 -0.190378 11.0859 0 -0.237315 11.1237 0 -0.287145
11.1757 0 -0.33785 11.2426 0 -0.386595 11.3259 0 -0.430052 11.4258
0 -0.464618 11.5421 0 -0.486658 11.6732 0 -0.490946 11.8182 0
-0.479131 11.9706 0 -0.458901 12.1248 0 -0.431778 12.2795 0 -0.39919
12.433 0 -0.362488 12.5824 0 -0.322844 12.7231 0 -0.281188 12.8446
0 -0.238343 12.9229 0 -0.195595 12.9249 0 -0.150594 12.7752 0
-0.10477 12.3964 0 -0.0558056 11.653 0 -0.0212437 10.028 0 0.00346272
11.0021 0 0.00123579 11.0003 0 0.00364698 11.0053 0 0.00244609 11.0085
0 -0.000526972 11.0115 0 -0.00558829 11.0141 0 -0.0131709 11.0163 0
-0.0238206 11.0181 0 -0.0382374 11.02 0 -0.0572149 11.0226 0 -0.0815837
11.0268 0 -0.112114 11.034 0 -0.149366 11.0464 0 -0.193451 11.0664
0 -0.243736 11.0974 0 -0.298499 11.143 0 -0.35533 11.2049 0
-0.411734 11.2838 0 -0.464362 11.3803 0 -0.509469 11.4947 0 -0.543182
11.6256 0 -0.561793 11.7713 0 -0.559929 11.9299 0 -0.540232 12.0944
0 -0.511872 12.2586 0 -0.476756 12.4214 0 -0.436585 12.5812 0
-0.392906 12.7355 0 -0.34699 12.8797 0 -0.299852 13.0037 0 -0.253704
13.1031 0 -0.207032 13.1291 0 -0.157796 12.9862 0 -0.108935 12.6104
0 -0.0574609 11.8574 0 -0.0215099 10.1999 0 0.00348155 11.0052 0
0.00330673 11.002 0 0.001149 11.0002 0 0.00227278 11.0082 0 -0.000689303
11.011 0 -0.00570813 11.0133 0 -0.0132148 11.015 0 -0.0237567 11.0163
0 -0.0380438 11.0172 0 -0.0568975 11.0184 0 -0.081208 11.0207 0
-0.111859 11.0252 0 -0.149609 11.0338 0 -0.194889 11.0488 0 -0.24756
11.0732 0 -0.306535 11.1109 0 -0.369435 11.1657 0 -0.433201 11.2392
0 -0.49483 11.3313 0 -0.550479 11.4424 0 -0.596048 11.572 0
-0.627499 11.7182 0 -0.641179 11.8784 0 -0.631684 12.0504 0 -0.602824
12.2262 0 -0.565349 12.3995 0 -0.521529 12.5692 0 -0.473312 12.7341
0 -0.422383 12.892 0 -0.370101 13.0383 0 -0.319366 13.1822 0
-0.269007 13.3022 0 -0.217334 13.3309 0 -0.16424 13.1922 0 -0.112506
12.817 0 -0.0588245 12.0529 0 -0.0216779 10.3629 0 0.00211858 11.0079
0 0.00329961 11.005 0 0.00310943 11.0019 0 0.00106581 11.0002 4.3465e-19
-0.000824849 11.0105 0 -0.00579612 11.0126 0 -0.0132214 11.014 0 -0.0236439
11.0146 0 -0.0377753 11.0148 0 -0.0564528 11.0148 0 -0.0806057 11.0153
0 -0.111198 11.0174 0 -0.149135 11.0226 0 -0.195098 11.033 0
-0.249341 11.0514 0 -0.311365 11.0814 0 -0.37952 11.127 0 -0.450678
11.1925 0 -0.521049 11.279 0 -0.587144 11.3858 0 -0.644679 11.5126
0 -0.689287 11.6581 0 -0.716898 11.8199 0 -0.724051 11.9944 0
-0.705442 12.1792 0 -0.666204 12.3653 0 -0.618726 12.5464 0 -0.565609
12.7218 0 -0.508989 12.8906 0 -0.45065 13.0506 0 -0.394384 13.2165
0 -0.339056 13.3795 0 -0.282755 13.499 0 -0.22654 13.5283 0
-0.169814 13.3916 0 -0.115506 13.0153 0 -0.059915 12.239 0 -0.0217514
10.5168 0 -0.000948289 11.0102 0 0.00196713 11.0076 0 0.00308413 11.0047
1.90291e-18 0.00291821 11.0017 -1.37616e-18 0.000985779 11.0002 -8.82116e-19 -0.00586058 11.012 0
-0.0132005 11.013 0 -0.0234979 11.0132 0 -0.0374587 11.0126 0 -0.0559258
11.0116 0 -0.0798525 11.0106 0 -0.110258 11.0105 0 -0.148151 11.0127
0 -0.194405 11.019 0 -0.249584 11.0319 0 -0.313664 11.0547 0
-0.385685 11.0913 0 -0.463341 11.1463 0 -0.542618 11.2241 0 -0.618972
11.3252 0 -0.688481 11.4479 0 -0.746495 11.5913 0 -0.788511 11.7533
0 -0.810569 11.9306 0 -0.809558 12.119 0 -0.780392 12.3156 0
-0.729659 12.5109 0 -0.671421 12.6985 0 -0.608538 12.8783 0 -0.543283
13.0495 0 -0.480458 13.229 0 -0.4191 13.4135 0 -0.35679 13.5746
0 -0.295026 13.6917 0 -0.23456 13.7196 0 -0.174544 13.5832 0
-0.117978 13.2047 0 -0.0607582 12.4154 0 -0.0217428 10.6615 0 -0.00592359
11.0115 0 -0.0010311 11.0097 -3.85218e-18 0.00179927 11.0071 -2.00363e-18 0.00287449 11.0044
9.66022e-19 0.00273033 11.0016 -9.3061e-19 0.000908971 11.0002 0 -0.0131606 11.0122 0
-0.0233297 11.0119 0 -0.0371137 11.0107 0 -0.0553511 11.0087 0 -0.0790065
11.0064 0 -0.109134 11.0044 0 -0.146818 11.0039 0 -0.19307 11.0065
0 -0.248694 11.0144 0 -0.314047 11.0306 0 -0.388738 11.0588 0
-0.471257 11.1035 0 -0.558494 11.1695 0 -0.645463 11.2612 0 -0.726865
11.3783 0 -0.798435 11.5181 0 -0.855272 11.6789 0 -0.89288 11.8576
0 -0.907585 12.0501 0 -0.896778 12.2517 0 -0.8557 12.4589 0
-0.792498 12.6621 0 -0.722889 12.8549 0 -0.649911 13.0374 0 -0.579561
13.2283 0 -0.510993 13.4264 0 -0.441435 13.6084 0 -0.372631 13.7657
0 -0.305764 13.8785 0 -0.241415 13.9036 0 -0.17849 13.7665 0
-0.119968 13.3846 0 -0.0613844 12.5819 0 -0.0216665 10.797 0 -0.0131344
11.0114 0 -0.00589132 11.0108 8.10757e-18 -0.0010802 11.0091 0 0.00163826 11.0067
2.0328e-18 0.00267192 11.0042 5.85143e-22 0.00254634 11.0015 0 0.000835368 11.0002 0
-0.0231484 11.0108 0 -0.0367531 11.009 0 -0.0547533 11.0062 0 -0.0781115
11.0027 0 -0.107902 10.999 0 -0.14526 10.9961 0 -0.191296 10.9954
0 -0.246996 10.9988 0 -0.313014 11.0091 0 -0.389421 11.0296 0
-0.475377 11.0645 0 -0.568677 11.1187 0 -0.665302 11.1973 0 -0.759218
11.3046 0 -0.844409 11.4391 0 -0.916395 11.597 0 -0.970173 11.7756
0 -1.00143 11.971 0 -1.00694 12.1782 0 -0.984758 12.3919 0
-0.93054 12.6084 0 -0.854064 12.8179 0 -0.772632 13.0142 0 -0.693821
13.2169 0 -0.616904 13.4265 0 -0.538692 13.6219 0 -0.461417 13.7995
0 -0.386551 13.9512 0 -0.314991 14.0586 0 -0.247183 14.0799 0
-0.181716 13.9409 0 -0.12153 13.5548 0 -0.061824 12.7384 0 -0.0215353
10.9235 0 -0.0230016 11.0098 0 -0.0129361 11.0106 5.02318e-22 -0.00574054 11.01
0 -0.00112716 11.0085 -2.1392e-18 0.00148615 11.0063 4.18704e-22 0.0024766 11.004 0
0.00236632 11.0014 0 0.000764964 11.0001 0 -0.0363864 11.0075 0 -0.0541475
11.004 0 -0.077199 10.9994 0 -0.106618 10.9943 0 -0.143571 10.9892
0 -0.18924 10.9856 0 -0.244744 10.985 0 -0.310966 10.9898 0
-0.388344 11.0032 0 -0.47659 11.0291 0 -0.574272 11.0721 0 -0.678383
11.1375 0 -0.783896 11.2305 0 -0.883674 11.3549 0 -0.971066 11.5082
0 -1.04156 11.685 0 -1.09021 11.8816 0 -1.1131 12.0932 0
-1.1076 12.3142 0 -1.07255 12.5387 0 -1.00413 12.7631 0 -0.913745
12.9772 0 -0.825593 13.1942 0 -0.739201 13.416 0 -0.650912 13.623
0 -0.563531 13.8138 0 -0.479032 13.9852 0 -0.398587 14.1302 0
-0.322805 14.2313 0 -0.251955 14.2479 0 -0.184294 14.1062 0 -0.122712
13.7153 0 -0.0621033 12.8852 0 -0.0213601 11.0414 0 -0.0360818 11.0062
0 -0.0225762 11.0087 -4.48372e-18 -0.0124911 11.0096 0 -0.00559441 11.0092 0
-0.00116085 11.0079 6.50736e-18 0.00134285 11.006 0 0.00228834 11.0037 0 0.0021904
11.0013 1.93917e-18 0.000697764 11.0001 0 -0.0535438 11.002 0 -0.0762872 10.9965
0 -0.105321 10.99 0 -0.141823 10.9831 0 -0.187022 10.9769 0
-0.242135 10.9727 0 -0.308218 10.9727 0 -0.385995 10.9797 0 -0.475625
10.9973 0 -0.576325 11.0299 0 -0.685967 11.0826 0 -0.80063 11.1609
0 -0.914193 11.2699 0 -1.01839 11.413 0 -1.10609 11.5862 0
-1.17293 11.7823 0 -1.21428 11.9969 0 -1.22675 12.2241 0 -1.2085
12.4577 0 -1.15927 12.6916 0 -1.07572 12.9219 0 -0.977489 13.1577
0 -0.880513 13.3945 0 -0.780667 13.6139 0 -0.681488 13.8161 0
-0.585502 14.0003 0 -0.494332 14.1644 0 -0.408848 14.3019 0 -0.329323
14.3959 0 -0.255829 14.4072 0 -0.186298 14.2622 0 -0.123564 13.8662
0 -0.0622477 13.0225 0 -0.0211516 11.151 0 -0.0530389 11.0003 0
-0.0353539 11.0047 0 -0.0217195 11.0074 -4.89998e-18 -0.0120627 11.0086 -4.72882e-18 -0.00542895
11.0085 -9.12152e-18 -0.0011812 11.0074 0 0.00120843 11.0056 -4.23625e-18 0.00210738 11.0035
-4.08012e-18 0.00201856 11.0013 1.96376e-18 0.000633623 11.0001 0 -0.0753869 10.994 0
-0.104035 10.9863 0 -0.140066 10.9777 0 -0.184734 10.9691 0 -0.23932
10.9617 0 -0.305015 10.9574 0 -0.382762 10.9586 0 -0.473074 10.9687
0 -0.575703 10.9917 0 -0.68927 11.0326 0 -0.810837 11.0967 0