#           x             T
    -0.118947       349.654
    -0.118121       349.652
    -0.117174        349.65
    -0.116087       349.648
     -0.11484       349.645
    -0.113408       349.644
    -0.111764       349.642
    -0.109877        349.64
    -0.107712       349.639
    -0.105227       349.637
    -0.102374       349.636
   -0.0990995       349.635
   -0.0953416       349.635
   -0.0914285       349.639
   -0.0876191       349.648
   -0.0838095       349.672
        -0.08       349.723
   -0.0761904       349.833
   -0.0723809       350.061
   -0.0685715       350.528
   -0.0649271       351.425
    -0.061624       352.979
    -0.058655       355.439
   -0.0559862       358.968
   -0.0535874       363.525
   -0.0514313       368.851
   -0.0494932       374.523
   -0.0477512       380.035
   -0.0461853       384.913
   -0.0447779       388.862
   -0.0435128       391.819
   -0.0423757       393.903
   -0.0413536       395.296
   -0.0404349       396.203
     -0.03925       396.752
     -0.03775       396.688
     -0.03625       395.901
     -0.03475       394.677
     -0.03325       393.374
     -0.03175       392.192
     -0.03025       391.192
     -0.02875       390.374
     -0.02725       389.718
     -0.02575       389.206
   -0.0243994       388.831
   -0.0231362       388.553
    -0.021743       388.321
   -0.0202065       388.131
   -0.0189203       388.012
   -0.0180315       387.944
   -0.0166427        387.86
   -0.0145812       387.771
    -0.012414       387.715
   -0.0110231       387.688
   -0.0100402       387.673
  -0.00847254       387.652
  -0.00677747       387.637
  -0.00524316       387.627
  -0.00385435       387.621
  -0.00288618       387.619
  -0.00228892       387.619
  -0.00133333        387.62
            0       387.625
   0.00133333       387.634
     0.002289       387.643
   0.00288966        387.65
   0.00386381       387.662
   0.00525697       387.682
   0.00679351       387.706
    0.0084882       387.735
    0.0100473       387.763
    0.0110276        387.78
    0.0124188       387.804
    0.0145859       387.841
    0.0166548       387.885
    0.0180384       387.923
    0.0189282       387.952
    0.0202225       388.003
    0.0217568       388.088
    0.0231456       388.206
    0.0244027        388.36
      0.02575       388.586
      0.02725       388.926
      0.02875       389.405
      0.03025       390.055
      0.03175       390.914
      0.03325       392.008
      0.03475        393.32
      0.03625       394.749
      0.03775       395.997
      0.03925       396.638
    0.0404349       396.536
    0.0413536       395.953
    0.0423757       394.842
    0.0435128       393.023
    0.0447779       390.288
    0.0461853       386.459
    0.0477511       381.546
    0.0494932       375.855
    0.0514312       369.909
    0.0535874       364.279
    0.0559862       359.448
    0.0586549       355.711
     0.061624       353.115
    0.0649271       351.485
    0.0685714       350.552
    0.0723809       350.068
    0.0761904       349.834
         0.08       349.722
    0.0838095        349.67
     0.087619       349.646
    0.0914285       349.637
    0.0953419       349.634
    0.0991002       349.634
     0.102374       349.635
     0.105227       349.636
     0.107713       349.638
     0.109878       349.639
     0.111765       349.641
     0.113408       349.642
      0.11484       349.644
     0.116088       349.646
     0.117175       349.649
     0.118122       349.651
     0.118947       349.653
     0.119665       349.655
