#           x             T
    -0.118947       349.902
    -0.118121       349.897
    -0.117174        349.89
    -0.116087       349.884
     -0.11484       349.879
    -0.113408       349.876
    -0.111764       349.874
    -0.109877       349.872
    -0.107712       349.871
    -0.105227        349.87
    -0.102374       349.869
   -0.0990995       349.869
   -0.0953416        349.87
   -0.0914285       349.873
   -0.0876191       349.882
   -0.0838095       349.903
        -0.08       349.948
   -0.0761904       350.043
   -0.0723809       350.241
   -0.0685715        350.65
   -0.0649271       351.438
    -0.061624       352.818
    -0.058655       355.048
   -0.0559862       358.365
   -0.0535874       362.805
   -0.0514313       368.144
   -0.0494932       373.939
   -0.0477512       379.635
   -0.0461853       384.714
   -0.0447779       388.853
   -0.0435128       391.993
   -0.0423757       394.263
   -0.0413536       395.851
   -0.0404349       396.995
     -0.03925       397.955
     -0.03775       398.617
     -0.03625       398.933
     -0.03475       399.048
     -0.03325       399.074
     -0.03175       399.067
     -0.03025       399.052
     -0.02875       399.036
     -0.02725       399.022
     -0.02575       399.011
   -0.0243994       399.002
   -0.0231362       398.995
    -0.021743       398.984
   -0.0202065       398.957
   -0.0189203       398.922
   -0.0180315       398.891
   -0.0166427       398.826
   -0.0145812       398.683
    -0.012414       398.387
   -0.0110231       398.166
   -0.0100402       397.996
  -0.00847254       397.717
  -0.00677747       397.431
  -0.00524316       397.181
  -0.00385435       396.998
  -0.00288618       396.892
  -0.00228892       396.835
  -0.00133333       396.767
            0       396.695
   0.00133333        396.65
     0.002289       396.633
   0.00288966       396.632
   0.00386381       396.637
   0.00525697       396.659
   0.00679351       396.706
    0.0084882       396.775
    0.0100473       396.857
    0.0110276       396.915
    0.0124188       397.003
    0.0145859       397.152
    0.0166548       397.298
    0.0180384       397.393
    0.0189282       397.453
    0.0202225       397.534
    0.0217568       397.616
    0.0231456       397.662
    0.0244027       397.671
      0.02575       397.634
      0.02725       397.525
      0.02875        397.31
      0.03025       396.951
      0.03175       396.398
      0.03325       395.591
      0.03475       394.455
      0.03625       392.911
      0.03775       390.881
      0.03925       388.429
    0.0404349       385.982
    0.0413536       383.649
    0.0423757        380.98
    0.0435128       377.868
    0.0447779       374.414
    0.0461853       370.764
    0.0477511       367.082
    0.0494932       363.528
    0.0514312       360.249
    0.0535874       357.373
    0.0559862       354.997
    0.0586549       353.169
     0.061624        351.87
    0.0649271       351.015
    0.0685714       350.495
    0.0723809       350.207
    0.0761904       350.057
         0.08        349.98
    0.0838095       349.939
     0.087619       349.918
    0.0914285       349.907
    0.0953419         349.9
    0.0991002       349.897
     0.102374       349.895
     0.105227       349.894
     0.107713       349.894
     0.109878       349.895
     0.111765       349.895
     0.113408       349.897
      0.11484         349.9
     0.116088       349.904
     0.117175        349.91
     0.118122       349.917
     0.118947       349.922
     0.119665       349.926
