#           x             T
    -0.118946       349.909
    -0.118121       349.898
    -0.117174       349.891
    -0.116087       349.885
    -0.114839       349.881
    -0.113407       349.878
    -0.111763       349.876
    -0.109877       349.875
    -0.107712       349.874
    -0.105226       349.873
    -0.102373       349.873
   -0.0990994       349.874
   -0.0953416       349.877
   -0.0914285       349.884
    -0.087619         349.9
   -0.0838095       349.931
        -0.08        349.99
   -0.0761904       350.101
   -0.0723809       350.307
   -0.0685714       350.679
   -0.0649271       351.308
    -0.061624       352.269
   -0.0586549       353.625
   -0.0559862       355.399
   -0.0535874       357.548
   -0.0514312       359.972
   -0.0494932       362.531
   -0.0477512       365.091
   -0.0461853       367.543
   -0.0447779       369.811
   -0.0435128       371.855
   -0.0423757       373.674
   -0.0413536       375.291
   -0.0404349       376.854
     -0.03925       378.714
     -0.03775       380.816
     -0.03625        382.78
     -0.03475       384.479
     -0.03325       385.905
     -0.03175       387.064
     -0.03025        387.97
     -0.02875       388.646
     -0.02725       389.117
     -0.02575       389.434
   -0.0243993       389.631
   -0.0231362       389.733
    -0.021743        389.81
   -0.0202065       389.921
   -0.0185118       390.043
   -0.0171075       390.141
   -0.0161272       390.216
   -0.0145812       390.345
    -0.012414       390.559
   -0.0103452        390.83
  -0.00847254       391.112
  -0.00711441       391.326
  -0.00630907       391.458
  -0.00524316       391.635
  -0.00385435       391.864
  -0.00259726       392.065
  -0.00133333       392.254
            0       392.447
   0.00133333       392.623
   0.00260066        392.77
   0.00386381       392.906
   0.00525697       393.038
   0.00631696        393.13
   0.00712283       393.197
    0.0084882       393.305
    0.0103573       393.449
    0.0124188       393.612
    0.0145859       393.798
    0.0161321       393.945
     0.017115       394.048
    0.0185274       394.209
    0.0202225       394.424
    0.0217568       394.638
    0.0231456       394.842
    0.0244027       395.044
      0.02575       395.263
      0.02725       395.497
      0.02875       395.723
      0.03025       395.922
      0.03175       396.075
      0.03325       396.159
      0.03475       396.144
      0.03625       395.997
      0.03775       395.675
      0.03925       395.157
    0.0404349        394.52
    0.0413536       393.797
    0.0423757       392.816
    0.0435128       391.441
    0.0447779       389.558
    0.0461853       387.035
    0.0477511       383.749
    0.0494932       379.631
    0.0514312       374.747
    0.0535874       369.385
    0.0559862       364.061
    0.0586549       359.375
     0.061624       355.743
    0.0649271       353.244
    0.0685714       351.699
    0.0723809       350.839
    0.0761904       350.389
         0.08       350.155
    0.0838095       350.031
     0.087619       349.966
    0.0914285       349.931
    0.0953419       349.911
    0.0991002       349.901
     0.102374       349.896
     0.105227       349.893
     0.107713       349.892
     0.109878       349.892
     0.111765       349.893
     0.113408       349.894
      0.11484       349.896
     0.116088       349.899
     0.117175       349.903
     0.118122        349.91
     0.118947       349.921
     0.119665       349.932
