#           x             T
    -0.118947       349.571
    -0.118121        349.57
    -0.117174       349.569
    -0.116087       349.567
     -0.11484       349.566
    -0.113408       349.565
    -0.111764       349.563
    -0.109877       349.562
    -0.107712       349.561
    -0.105227       349.559
    -0.102374       349.558
   -0.0990995       349.557
   -0.0953416       349.557
   -0.0914285       349.561
   -0.0876191        349.57
   -0.0838095       349.593
        -0.08       349.643
   -0.0761904       349.748
   -0.0723809       349.969
   -0.0685715       350.422
   -0.0649271       351.291
    -0.061624       352.803
    -0.058655       355.204
   -0.0559862       358.665
   -0.0535874       363.157
   -0.0514313       368.429
   -0.0494932       374.065
   -0.0477512       379.567
   -0.0461853       384.431
   -0.0447779       388.346
   -0.0435128       391.227
   -0.0423757       393.175
   -0.0413536        394.36
   -0.0404349       394.958
     -0.03925       394.966
     -0.03775       393.986
     -0.03625        392.12
     -0.03475       389.878
     -0.03325       387.698
     -0.03175       385.791
     -0.03025       384.206
     -0.02875       382.926
     -0.02725       381.907
     -0.02575       381.111
   -0.0243994       380.523
   -0.0231362       380.076
    -0.021743       379.686
   -0.0202065       379.346
   -0.0189203       379.111
   -0.0180315       378.967
   -0.0166427       378.769
   -0.0145812       378.519
    -0.012414       378.308
   -0.0110231       378.188
   -0.0100402       378.108
  -0.00847254       377.989
  -0.00677747       377.881
  -0.00524316         377.8
  -0.00385435       377.743
  -0.00288618       377.711
  -0.00228892       377.696
  -0.00133333       377.678
            0       377.667
   0.00133333       377.673
     0.002289       377.687
   0.00288966         377.7
   0.00386381       377.729
   0.00525697       377.782
   0.00679351       377.858
    0.0084882       377.961
    0.0100473       378.076
    0.0110276       378.153
    0.0124188       378.271
    0.0145859        378.48
    0.0166548       378.733
    0.0180384       378.934
    0.0189282       379.082
    0.0202225       379.326
    0.0217568       379.679
    0.0231456       380.082
    0.0244027       380.544
      0.02575       381.152
      0.02725       381.972
      0.02875       383.018
      0.03025       384.324
      0.03175       385.931
      0.03325       387.856
      0.03475        390.04
      0.03625       392.267
      0.03775       394.094
      0.03925       395.023
    0.0404349       394.977
    0.0413536       394.353
    0.0423757       393.145
    0.0435128       391.179
    0.0447779       388.283
    0.0461853       384.361
    0.0477511       379.499
    0.0494932       374.008
    0.0514312       368.384
    0.0535874       363.126
    0.0559862       358.645
    0.0586549       355.193
     0.061624       352.797
    0.0649271       351.288
    0.0685714       350.421
    0.0723809       349.969
    0.0761904       349.748
         0.08       349.643
    0.0838095       349.593
     0.087619        349.57
    0.0914285       349.561
    0.0953419       349.558
    0.0991002       349.557
     0.102374       349.558
     0.105227        349.56
     0.107713       349.561
     0.109878       349.562
     0.111765       349.563
     0.113408       349.565
      0.11484       349.566
     0.116088       349.567
     0.117175       349.569
     0.118122        349.57
     0.118947       349.571
     0.119665       349.572
