# vtk DataFile Version 2.0
sampleSurface
ASCII
DATASET POLYDATA
POINTS 15978 float
-4.26165e-19 0.000133477 0 -4.18079e-19 -0.000798814 0 -4.33681e-19 0.001 0 -4.09379e-19 -0.00180187
0 -0.00181681 0.000361473 0 0.00181681 0.000361473 0 -0.00181396 -0.000575145 0
0.00181396 -0.000575145 0 -0.00181945 0.00123202 0 0.00181945 0.00123202 0 -0.00181089
-0.00158285 0 0.00181089 -0.00158285 0 -4.00018e-19 -0.00288105 0 -0.00180759 -0.00266704
0 0.00180759 -0.00266704 0 -0.00351565 8.15481e-05 0 0.00351565 8.15481e-05 0
-0.00351186 -0.000939823 0 0.00351186 -0.000939823 0 -0.00351918 0.00103087 0 0.00351918
0.00103087 0 -0.00352245 0.00191322 0 0.00352245 0.00191322 0 -3.89947e-19 -0.00404214
0 -0.00350777 -0.00203871 0 0.00350777 -0.00203871 0 -0.00180405 -0.00383352 0
0.00180405 -0.00383352 0 -0.00350338 -0.00322101 0 0.00350338 -0.00322101 0 -0.005
8.60602e-05 0 0.005 8.60602e-05 0 -0.005 -0.00103629 0 0.005 -0.00103629
0 -0.005 0.00112923 0 0.005 0.00112923 0 -3.79112e-19 -0.00529135 0
-0.00180023 -0.00508853 0 0.00180023 -0.00508853 0 -0.005 0.00209882 0 0.005
0.00209882 0 -0.005 -0.00224382 0 0.005 -0.00224382 0 -0.00349866 -0.00449304
0 0.00349866 -0.00449304 0 -0.005 0.003 0 0.005 0.003 0
-0.005 -0.003543 0 0.005 -0.003543 0 -0.00637208 2.82617e-05 0 0.00639053
4.25732e-05 0 -0.00637208 0.00114892 0 -0.00637208 -0.00117745 0 0.00639053 -0.00116311
0 0.00639053 0.00116321 0 -3.67455e-19 -0.00663538 0 -0.00179612 -0.00643879 0
0.00179612 -0.00643879 0 -0.00637208 0.00219052 0 0.00639053 0.00220479 0 -0.00349357
-0.00586162 0 0.00349357 -0.00586162 0 -0.00637208 -0.00247467 0 0.00639053 -0.00246031
0 -0.005 -0.00494079 0 0.005 -0.00494079 0 -0.00637208 0.00315864 0
0.00639053 0.00317289 0 -0.00637208 -0.00387036 0 0.00639053 -0.00385597 0 -0.00637208
0.00405846 0 0.00639053 0.00407269 0 -0.00778421 -7.99569e-05 0 0.00781802 -5.3679e-05
0 -0.00778421 0.00112388 0 0.00781802 0.00115011 0 -0.00778421 -0.00137517 0
0.00781802 -0.00134884 0 -3.54912e-19 -0.00808142 0 -0.0017917 -0.00789154 0 0.0017917
-0.00789154 0 -0.00778421 0.0022428 0 -0.0034881 -0.00733407 0 0.0034881 -0.00733407
0 0.00781802 0.00226899 0 -0.005 -0.00644467 0 0.005 -0.00644467 0
-0.00778421 -0.00276868 0 0.00781802 -0.0027423 0 -0.00637208 -0.00537197 0 0.00639053
-0.00535755 0 -0.00778421 0.00328278 0 0.00781802 0.00330893 0 -0.00778421 0.00424939
0 -0.00778421 -0.00426796 0 0.00781802 -0.00424152 0 0.00781802 0.00427551 0
-0.00923755 -0.000243565 0 0.00928347 -0.000207818 0 -0.00923755 0.00104957 0 -0.00778421
0.00514782 0 0.00928347 0.00108525 0 0.00781802 0.0051739 0 -0.00923755 -0.00163485
0 0.00928347 -0.00159903 0 -0.00637208 -0.00698755 0 0.00639053 -0.0069731 0
-0.005 -0.0080627 0 0.005 -0.0080627 0 -0.00923755 0.00225148 0 0.00928347
0.0022871 0 -0.00348222 -0.00891827 0 0.00348222 -0.00891827 0 -0.00178695 -0.00945455
0 0.00178695 -0.00945455 0 -3.41418e-19 -0.00963721 0 -0.00923755 -0.00313172 0
-0.00778421 -0.00588103 0 0.00781802 -0.00585453 0 0.00928347 -0.00309583 0 -0.00923755
0.0033686 0 0.00928347 0.00340416 0 -0.00923755 0.00440692 0 0.00928347 0.00444243
0 -0.00923755 -0.00474221 0 0.00928347 -0.00470623 0 -0.00923755 0.00537198 0
-0.0107333 -0.000467921 0 0.00928347 0.00540745 0 -0.0107333 0.000921062 0 0.0107879
-0.000425364 0 0.00639053 -0.00871127 0 -0.00637208 -0.00872575 0 0.0107879 0.000963535
0 -0.00778421 -0.00761653 0 0.00781802 -0.00758997 0 -0.0107333 -0.00196233 0
0.0107879 -0.00191968 0 -0.0107333 0.00221206 0 -0.005 -0.00980352 0 0.005
-0.00980352 0 0.0107879 0.00225445 0 -0.00923755 0.00626897 0 -0.00347589 -0.0106227
0 0.00347589 -0.0106227 0 0.00928347 0.00630439 0 -0.0107333 0.00341198 0
-0.00178183 -0.0111362 0 0.00178183 -0.0111362 0 -0.00923755 -0.00647493 0 0.00928347
-0.00643887 0 -3.26899e-19 -0.0113111 0 -0.0107333 -0.00357015 0 0.0107879 0.00345431
0 0.0107879 -0.00352741 0 -0.0107333 0.00452726 0 0.0107879 0.00456952 0
-0.0107333 -0.00530001 0 0.0107879 -0.00525717 0 -0.0107333 0.00556386 0 0.0107879
0.00560606 0 -0.000743369 0.0122055 0 0.000743369 0.0122055 0 -0.00778421 -0.00948375
0 0.00781802 -0.00945713 0 -0.0122727 0.000733061 0 -0.0122727 -0.000758799 0
0.0123323 -0.000712262 0 0.0123323 0.0007795 0 0.00639053 -0.0105814 0 -0.00637208
-0.0105959 0 -0.00923755 -0.00833916 0 -0.0122727 0.00211968 0 0.00928347 -0.00830301
0 -0.0122727 -0.00236389 0 0.0123323 0.00216603 0 0.0123323 -0.00231725 0
-0.0107333 0.00652734 0 0.0107879 0.00656947 0 -0.005 -0.0116765 0 0.005
-0.0116765 0 -0.0122727 0.00340848 0 0.0123323 0.00345474 0 -0.000741126 0.0128136
0 0.000741126 0.0128136 0 -0.0107333 -0.00716117 0 0.0107879 -0.00711821 0
-0.00346908 -0.0124565 0 0.00346908 -0.0124565 0 -0.0122727 -0.00409081 0 0.0123323
-0.00404405 0 -0.0107333 0.00742284 0 -0.00177633 -0.0129455 0 0.00177633 -0.0129455
0 -0.0122727 0.00460636 0 -3.11279e-19 -0.013112 0 0.0107879 0.00746492 0
-0.002 0.013 0 0.002 0.013 0 0.0123323 0.00465255 0 -0.0007387
0.0134712 0 0.0007387 0.0134712 0 -0.0122727 0.00571974 0 0.0123323 0.00576585
0 -0.0122727 -0.00594879 0 0.0123323 -0.00590191 0 -0.002 0.0135849 0
0.002 0.0135849 0 -0.0138571 0.000479853 0 -0.00923755 -0.0103449 0 0.00928347
-0.0103086 0 0.00781802 -0.011466 0 -0.00778421 -0.0114927 0 -0.0138571 -0.00112242
0 0.0139177 0.000527252 0 0.0139177 -0.00107491 0 -0.0138571 0.0019691 0
-0.0122727 0.00675458 0 0.0139177 0.00201639 0 0.0123323 0.00680062 0 -0.0107333
-0.00916358 0 0.00639053 -0.0125934 0 0.0107879 -0.0091205 0 -0.00637208 -0.012608
0 -0.0138571 -0.0028463 0 0.0139177 -0.00279868 0 -0.000736077 0.0141824 0
0.000736077 0.0141824 0 -0.00319452 0.0138829 0 0.00320133 0.0138879 0 -0.0138571
0.00335328 0 0.0139177 0.00340049 0 -0.002 0.0142174 0 0.002 0.0142174
0 -0.0122727 0.00771641 0 0.0123323 0.00776239 0 -0.005 -0.0136916 0
0.005 -0.0136916 0 -0.0138571 0.00463982 0 -0.0122727 -0.0079478 0 -0.0138571
-0.00470103 0 0.0123323 -0.00790078 0 0.0139177 -0.00465328 0 0.0139177 0.00468694
0 -0.00319452 0.0144678 0 0.00320133 0.0144728 0 -0.00346175 -0.0144295 0
0.00346175 -0.0144295 0 -0.00073324 0.0149515 0 0.00073324 0.0149515 0 -0.0122727
0.00861039 0 -0.00177041 -0.0148921 0 0.00177041 -0.0148921 0 -0.002 0.0149014
0 0.002 0.0149014 0 -0.0138571 0.0058356 0 -2.94473e-19 -0.0150496 0
0.0123323 0.00865631 0 0.0139177 0.00588264 0 -0.0138571 -0.00669653 0 0.0139177
-0.00664864 0 -0.00319452 0.0151003 0 0.00320133 0.0151053 0 -0.0154877 0.000155282
0 -0.0138571 0.00694702 0 -0.00451419 0.0148583 0 0.0045263 0.0148673 0
0.00928347 -0.0124665 0 -0.00923755 -0.0125028 0 0.0155453 0.000200444 0 -0.0154877
-0.00156548 0 0.0139177 0.00699399 0 -0.0154877 0.00175466 0 -0.0107333 -0.011318
0 0.0107879 -0.0112748 0 0.0155453 -0.00152021 0 0.0155453 0.00179972 0
0.00781802 -0.0136273 0 -0.00778421 -0.0136541 0 -0.002 0.0156411 0 0.002
0.0156411 0 -0.000730172 0.0157833 0 0.000730172 0.0157833 0 -0.0154877 0.0032412
0 -0.0154877 -0.00341685 0 0.0155453 0.00328617 0 -0.0122727 -0.0100985 0
0.0155453 -0.00337146 0 0.0123323 -0.0100514 0 -0.0138571 0.00798004 0 0.0139177
0.00802694 0 0.00639053 -0.0147581 0 -0.00637208 -0.0147727 0 -0.00451419 0.0154432
0 0.0045263 0.0154521 0 -0.00319452 0.0157843 0 0.00320133 0.0157893 0
-0.0154877 0.00462288 0 0.0155453 0.00466776 0 -0.0154877 -0.00540874 0 -0.0138571
-0.00884348 0 0.0155453 -0.00536322 0 0.0139177 -0.00879545 0 -0.0138571 0.00894019
0 -0.002 0.0164411 0 0.002 0.0164411 0 0.0139177 0.00898702 0
-0.0154877 0.00590709 0 -0.005 -0.0158596 0 0.005 -0.0158596 0 0.0155453
0.00595189 0 -0.00451419 0.0160757 0 -0.000726854 0.0166828 0 0.000726854 0.0166828
0 0.0045263 0.0160846 0 -0.00319452 0.016524 0 0.00320133 0.016529 0
-0.00345386 -0.0165523 0 0.00345386 -0.0165523 0 -0.0138571 0.0098326 0 -0.00597213
0.0159359 0 0.00598764 0.0159474 0 -0.0154877 0.00710071 0 0.0139177 0.00987937
0 -0.00176404 -0.0169864 0 0.00176404 -0.0169864 0 0.0155453 0.00714543 0
-2.76391e-19 -0.0171343 0 -0.0171658 -0.000247278 0 0.0172162 -0.000207752 0 -0.0171658
0.00147028 0 -0.0154877 -0.0075518 0 0.0155453 -0.00750615 0 0.0172162 0.00150971
0 -0.0171658 -0.00209519 0 0.0172162 -0.00205556 0 0.0107879 -0.0135925 0
-0.0107333 -0.0136359 0 -0.00451419 0.0167597 0 0.0045263 0.0167686 0 -0.002
0.0173062 0 0.002 0.0173062 0 -0.0171658 0.00306667 0 -0.0122727 -0.0124125
0 0.00928347 -0.0147881 0 0.0123323 -0.0123652 0 -0.00923755 -0.0148246 0
0.0172162 0.00310601 0 -0.0154877 0.00821012 0 -0.00597213 0.0165208 0 0.00598764
0.0165323 0 0.0155453 0.00825477 0 -0.00319452 0.017324 0 0.00320133 0.017329
0 -0.0171658 -0.00408336 0 -0.000723266 0.0176555 0 0.000723266 0.0176555 0
0.0172162 -0.00404362 0 -0.0171658 0.00455044 0 0.00781802 -0.0159527 0 -0.00778421
-0.0159796 0 -0.0138571 -0.0111534 0 0.0139177 -0.0111052 0 0.0172162 0.0045897
0 -0.0154877 0.00924127 0 -0.00451419 0.0174994 0 0.0045263 0.0175084 0
0.0155453 0.00928585 0 -0.0171658 0.00592954 0 -0.00597213 0.0171533 0 0.00598764
0.0171648 0 0.0172162 0.00596872 0 0.00639053 -0.0170872 0 -0.00637208 -0.0171018
0 -0.0171658 -0.00622243 0 0.0172162 -0.00618257 0 -0.002 0.0182418 0
0.002 0.0182418 0 -0.0154877 -0.00985753 0 0.0155453 -0.00981172 0 -0.00319452
0.0181891 0 0.00320133 0.0181941 0 -0.0154877 0.0101997 0 0.0155453 0.0102442
0 -0.0171658 0.00721136 0 0.0172162 0.00725047 0 -0.000719385 0.0187075 0
0.000719385 0.0187075 0 -0.00758282 0.0171264 0 0.00759938 0.0171387 0 -0.00597213
0.0178373 0 0.00598764 0.0178488 0 -0.00451419 0.0182994 0 0.0045263 0.0183083
0 -0.005 -0.0181922 0 0.005 -0.0181922 0 -0.018893 -0.00073496 0
-0.018893 0.0011094 0 0.0189314 -0.000704684 0 0.0189314 0.0011396 0 -0.0154877
0.0110905 0 -0.018893 -0.0027193 0 -0.018893 0.00282365 0 -0.0171658 0.00840275
0 0.0189314 -0.00268894 0 0.0155453 0.0111349 0 0.0189314 0.00285377 0
-0.00344538 -0.0188361 0 0.00344538 -0.0188361 0 -0.0171658 -0.00852385 0 0.0172162
0.00844179 0 0.0172162 -0.00848386 0 -0.00758282 0.0177113 0 0.00759938 0.0177235
0 -0.0122727 -0.0149021 0 0.0123323 -0.0148546 0 -0.00175719 -0.0192397 0
[...]
CELL_DATA 15677
FIELD attributes 1
U 3 15677 float
-0.304864 10.2652 0 0.190468 10.9192 0 -0.101143 9.44686 0 0.0315493 10.9901
0 0.118828 10.7325 0 -0.0119333 8.75885 0 0.0455171 11.0075 0
0.0144544 10.9817 0 0.0576937 10.4724 0 0.0115221 8.23016 0 0.0466804
11.0122 0 0.0433551 11.0312 0 0.0260594 10.929 0 0.0318865 10.1916
0 0.0113148 7.85728 0 0.0439947 11.0135 0 0.0423526 11.044 0
0.0427581 11.0213 0 0.0331966 10.8611 0 0.0213485 9.90411 0 0.00643236
7.61342 0 0.0413573 11.0136 0 0.0403818 11.0462 0 0.0401402 11.0452
0 0.0398328 11.0056 0 0.0327779 10.7703 0 0.015929 9.63917 0
0.00249489 7.46056 0 0.0386126 11.0131 0 0.0389101 11.0454 0 0.0392934
11.0537 0 0.038418 11.0453 0 0.0357826 10.9837 0 0.0288152 10.6586
0 0.0121411 9.41438 0 0.000552 7.36434 0 0.0355827 11.0123 0
0.0372736 11.0436 0 0.0385977 11.0564 0 0.0383394 11.0595 0 0.0359574
11.0432 0 0.0317713 10.9543 0 0.0240359 10.5346 0 0.00899964 9.23971
0 6.32871e-06 7.30251 0 0.0322965 11.0113 0 0.0353432 11.0412 0
0.0374786 11.0561 0 0.0377486 11.0647 0 0.0359958 11.0645 0 0.0328195
11.0379 0 0.0283517 10.9193 0 0.0194463 10.4004 0 0.00643577 9.10926
0 -0.000248719 7.26022 0 0.0288154 11.0101 0 0.0331877 11.0383 0
0.0360481 11.0543 0 0.0367674 11.066 0 0.0354022 11.0728 0 0.0328339
11.0678 0 0.0297228 11.0308 0 0.0253471 10.8782 0 0.0154199 10.272
0 0.00437912 9.0147 0 -0.000480865 7.23606 0 0.0252125 11.0089 0
0.0308301 11.0349 0 0.0343535 11.0517 0 0.0355083 11.0651 0 0.0344524
11.0757 0 0.032243 11.0799 0 0.0296446 11.0706 0 0.026735 11.0235
0 0.0221409 10.8332 0 0.0117956 10.1623 0 0.00263514 8.94909 0
-0.000683666 7.22485 0 0.0215199 11.0077 0 0.0282807 11.0312 0 0.0323859
11.0485 0 0.0339785 11.063 0 0.0332078 11.0757 0 0.0312539 11.0847
0 0.0289442 11.0872 0 0.0264972 11.0747 0 0.023447 11.017 0
0.0184423 10.7876 0 0.00839538 10.0737 0 0.00106808 8.90738 0 -0.00110183
7.22718 0 0.0177993 11.0065 0 0.0256104 11.0274 0 0.0301326 11.0446
0 0.0321607 11.0599 0 0.0316715 11.0741 0 0.0299204 11.0859 0
0.0277659 11.0942 0 0.0255348 11.0961 0 0.0230101 11.0811 0 0.0197565
11.012 0 0.0143158 10.7443 0 0.00508008 10.0089 0 -0.000586565 8.88676
0 -0.00172527 7.24284 0 0.0145989 11.0053 0 0.0228847 11.0234 0
0.0276115 11.0402 0 0.0300366 11.0561 0 0.0298339 11.0714 0 0.0282575
11.0849 0 0.0261795 11.0966 0 0.0239957 11.1055 0 0.0216397 11.1076
0 0.0189823 11.0904 0 0.0155587 11.0096 0 0.00983146 10.7088 0
0.00159287 9.96668 0 -0.00225557 8.88524 0 -0.00239343 7.27216 0 0.0120083
11.0043 0 0.0202899 11.0197 0 0.024873 11.0355 0 0.0275914 11.0515
0 0.0276778 11.0676 0 0.0262598 11.0826 0 0.0242096 11.0964 0
0.0219713 11.1092 0 0.019582 11.1196 0 0.0170341 11.1226 0 0.0142288
11.1038 0 0.0106503 11.0115 0 0.00493487 10.684 0 -0.00198996 9.94633
0 -0.00414851 8.90205 0 -0.00322192 7.31528 0 0.00985484 11.0035 0
0.0179773 11.0165 0 0.0222085 11.031 0 0.0248314 11.0464 0 0.0251827
11.063 0 0.0239093 11.079 0 0.0218529 11.0944 0 0.0194896 11.1097
0 0.0169436 11.1246 0 0.0142809 11.1372 0 0.0115278 11.1419 0
0.00856506 11.122 0 0.00493968 11.0195 0 -0.000438795 10.6726 0 -0.00586108
9.94674 0 -0.00624061 8.93617 0 -0.00413991 7.37239 0 0.00813402 11.0027
0 0.0158947 11.0138 0 0.0198006 11.027 0 0.0220741 11.0413 0
0.0223369 11.0576 0 0.0211842 11.0745 0 0.0190924 11.0911 0 0.0165472
11.1081 0 0.0137507 11.1258 0 0.0108275 11.1435 0 0.00787692 11.1592
0 0.00491952 11.1665 0 0.00187844 11.1462 0 -0.00160849 11.0352 0
-0.00631677 10.6758 0 -0.010056 9.96697 0 -0.00854281 8.98754 0 -0.00513732
7.44326 0 0.00674568 11.0022 0 0.0139752 11.0114 0 0.0175801 11.0235
0 0.0195276 11.0368 0 0.019453 11.0521 0 0.0180683 11.0689 0
0.0159076 11.0866 0 0.0131284 11.1049 0 0.00999746 11.1245 0 0.00669645
11.1454 0 0.00337601 11.1668 0 0.000140718 11.1864 0 -0.00294743 11.1971
0 -0.00590989 11.1774 0 -0.00901272 11.0604 0 -0.0127345 10.6948 0
-0.0146063 10.0061 0 -0.0110394 9.05534 0 -0.00620215 7.52769 0 0.00559198
11.0017 0 0.0122241 11.0095 0 0.0155193 11.0205 0 0.0171304 11.0327
0 0.0167587 11.0471 0 0.0148983 11.0631 0 0.0122836 11.0809 0
0.00921584 11.1003 0 0.00566725 11.1213 0 0.00187678 11.1443 0 -0.00195531
11.1692 0 -0.00566889 11.1953 0 -0.00911753 11.2198 0 -0.0121894 11.2347
0 -0.0148554 11.2168 0 -0.0173008 11.0962 0 -0.0197061 10.7299 0
-0.019508 10.0634 0 -0.0137231 9.13912 0 -0.00731629 7.625 0 0.00464408
11.0014 0 0.0106624 11.0079 0 0.0136195 11.0178 0 0.0148856 11.0291
0 0.0142036 11.0424 0 0.0119314 11.0575 0 0.00860999 11.0746 0
0.00480083 11.0943 0 0.000745223 11.1165 0 -0.00365161 11.141 0 -0.00813605
11.1683 0 -0.0124954 11.1982 0 -0.0165286 11.2298 0 -0.0200411 11.26
0 -0.022885 11.28 0 -0.0249981 11.2651 0 -0.0264725 11.1437 0
-0.0272168 10.7814 0 -0.0247418 10.138 0 -0.0165703 9.23807 0 -0.00847943
7.73452 0 0.00389086 11.0012 0 0.009256 11.0067 0 0.0118812 11.0156
0 0.0127993 11.0259 0 0.0118048 11.0381 0 0.00912012 11.0523 0
0.00518424 11.0686 0 0.000359504 11.0876 0 -0.00476845 11.11 0 -0.00990233
11.1358 0 -0.015193 11.1648 0 -0.02037 11.1973 0 -0.025181 11.2331
0 -0.0293782 11.2711 0 -0.0327349 11.3078 0 -0.0350879 11.334 0
-0.0363387 11.3234 0 -0.036497 11.2035 0 -0.0352399 10.849 0 -0.030287
10.2291 0 -0.0195652 9.35144 0 -0.0096714 7.85549 0 0.00331192 11.001
0 0.00805188 11.0057 0 0.0102935 11.0136 0 0.0108738 11.023 0
0.00957473 11.0342 0 0.0064911 11.0473 0 0.00195444 11.0626 0 -0.00375449
11.0808 0 -0.0102742 11.1026 0 -0.0168652 11.1287 0 -0.0231402 11.159
0 -0.0293298 11.1934 0 -0.0351236 11.232 0 -0.0402233 11.2747 0
-0.0443506 11.3199 0 -0.0472705 11.364 0 -0.0488071 11.3971 0 -0.0488404
11.3919 0 -0.0473133 11.276 0 -0.0437326 10.9324 0 -0.0361034 10.3357
0 -0.0226663 9.47816 0 -0.0108621 7.98672 0 0.00286223 11.0008 0
0.00706818 11.0049 0 0.00890677 11.012 0 0.00911053 11.0205 0 0.00752116
11.0307 0 0.00406331 11.0427 0 -0.00104437 11.0569 0 -0.00760481 11.0741
0 -0.0153403 11.0949 0 -0.023777 11.1203 0 -0.0319568 11.1509 0
-0.0393916 11.1869 0 -0.0464076 11.2276 0 -0.0526488 11.2733 0 -0.0577868
11.3236 0 -0.0615378 11.3769 0 -0.0636661 11.4292 0 -0.0640047 11.47
0 -0.0624313 11.4712 0 -0.0588398 11.3612 0 -0.0526289 11.0305 0
-0.0421196 10.4564 0 -0.0258243 9.61693 0 -0.0120377 8.12694 0 0.00250655
11.0007 0 0.00625764 11.0044 0 0.00774868 11.0108 0 0.00757447 11.0183
0 0.00564992 11.0274 0 0.00185048 11.0384 0 -0.00378534 11.0515 0
-0.0111479 11.0674 0 -0.0200475 11.0871 0 -0.0301018 11.1115 0 -0.0406711
11.1413 0 -0.050524 11.1776 0 -0.0590562 11.2201 0 -0.0667255 11.2682
0 -0.0731466 11.3219 0 -0.0779872 11.3807 0 -0.0809714 11.4427 0
-0.0818884 11.5037 0 -0.080598 11.5527 0 -0.0769968 11.5613 0 -0.0709565
11.4589 0 -0.0618215 11.1426 0 -0.0482766 10.59 0 -0.0290014 9.76642
0 -0.0131869 8.27482 0 0.00222085 11.0006 0 0.00558843 11.0039 0
0.00679041 11.0097 0 0.00630425 11.0165 0 0.00403526 11.0246 0 -0.000137872
11.0344 0 -0.00624843 11.0463 0 -0.0143485 11.0609 0 -0.0243422 11.0793
0 -0.0359437 11.1023 0 -0.0486129 11.131 0 -0.061496 11.1663 0
-0.0730277 11.2093 0 -0.0824872 11.2594 0 -0.0905273 11.3158 0 -0.0967616
11.3783 0 -0.100873 11.4463 0 -0.102621 11.5176 0 -0.101843 11.5878
0 -0.0984559 11.6456 0 -0.0924053 11.6622 0 -0.0835398 11.5686 0
-0.0712022 11.2674 0 -0.054502 10.7352 0 -0.0321613 9.92515 0 -0.0142887
8.42896 0 0.00198826 11.0006 0 0.00503131 11.0035 0 0.00599081 11.0089
0 0.00526026 11.0151 0 0.00271779 11.0223 0 -0.00182091 11.0309 0
-0.00841932 11.0414 0 -0.0171795 11.0546 0 -0.0281793 11.0715 0 -0.0412364
11.0929 0 -0.0559161 11.1201 0 -0.0714688 11.1542 0 -0.0867761 11.1961
0 -0.0998844 11.2468 0 -0.109979 11.3055 0 -0.117992 11.3711 0
-0.123561 11.4433 0 -0.126415 11.521 0 -0.126384 11.602 0 -0.123388
11.6816 0 -0.117417 11.7483 0 -0.108476 11.7733 0 -0.096449 11.6893
0 -0.080683 11.4036 0 -0.0607157 10.8902 0 -0.0352652 10.0916 0
-0.0153323 8.58789 0 0.00179673 11.0005 0 0.00456459 11.0033 0 0.00531985
11.0082 0 0.00439816 11.0139 0 0.00165106 11.0203 0 -0.0031624 11.0278
0 -0.0102089 11.0369 0 -0.019621 11.0486 0 -0.0315229 11.0638 0
-0.0459222 11.0834 0 -0.0624984 11.1089 0 -0.080614 11.1412 0 -0.0992551
11.1817 0 -0.116994 11.2312 0 -0.131447 11.2907 0 -0.141753 11.3592
0 -0.149213 11.4348 0 -0.15353 11.5171 0 -0.154517 11.605 0
-0.152107 11.696 0 -0.146325 11.7851 0 -0.137268 11.8607 0 -0.125022
11.8942 0 -0.10952 11.8202 0 -0.09015 11.5496 0 -0.0668429 11.0537
0 -0.0382801 10.2641 0 -0.0163193 8.75022 0 0.00163744 11.0005 0
0.00417108 11.003 0 0.00475329 11.0077 0 0.00368359 11.0128 0 0.000786123
11.0187 0 -0.0042191 11.0253 0 -0.0115883 11.0331 0 -0.0215728 11.043
0 -0.0343456 11.0562 0 -0.0499542 11.074 0 -0.0682865 11.0973 0
-0.0888286 11.1276 0 -0.110682 11.1662 0 -0.132518 11.2142 0 -0.152566
11.2724 0 -0.167992 11.3419 0 -0.177942 11.4209 0 -0.184195 11.5072
0 -0.186562 11.6002 0 -0.184989 11.6985 0 -0.17955 11.7994 0
-0.170409 11.8978 0 -0.157773 11.9821 0 -0.141843 12.024 0 -0.122599
11.9601 0 -0.0994916 11.7041 0 -0.0728213 11.2239 0 -0.0411856 10.4412
0 -0.0171658 8.91482 0 0.00150382 11.0004 0 0.00383727 11.0028 0
0.00427287 11.0072 0 0.00308886 11.012 0 8.35232e-05 11.0173 0 -0.00504891
11.0231 0 -0.0126306 11.0298 0 -0.0230165 11.0381 0 -0.0365323 11.0492
0 -0.0532953 11.0646 0 -0.0732191 11.0857 0 -0.0960195 11.1135 0
-0.120929 11.1497 0 -0.146731 11.1956 0 -0.171741 11.2523 0 -0.193835
11.3204 0 -0.209698 11.4008 0 -0.218558 11.4912 0 -0.222815 11.5887
0 -0.222446 11.6926 0 -0.217571 11.8013 0 -0.208436 11.912 0
-0.195363 12.0194 0 -0.178692 12.1119 0 -0.158736 12.1618 0 -0.135543
12.1076 0 -0.108608 11.8655 0 -0.0786071 11.3991 0 -0.0439131 10.6215
0 -0.018464 9.07893 0 0.00139085 11.0004 0 0.0035526 11.0026 0
0.00386468 11.0068 0 0.00259146 11.0113 0 -0.000488478 11.016 0 -0.00569865
11.0212 0 -0.0134079 11.0269 0 -0.0240485 11.0339 0 -0.0380779 11.043
0 -0.0558093 11.0558 0 -0.0772464 11.074 0 -0.102107 11.0991 0
-0.129878 11.1326 0 -0.159473 11.1758 0 -0.18931 11.2302 0 -0.21733
11.2967 0 -0.241019 11.3758 0 -0.256599 11.468 0 -0.263492 11.5704
0 -0.264861 11.6795 0 -0.260904 11.7944 0 -0.251951 11.9133 0
-0.23845 12.0333 0 -0.220895 12.1491 0 -0.199771 12.2492 0 -0.175504
12.3066 0 -0.14821 12.2616 0 -0.117427 12.0321 0 -0.0841293 11.5781
0 -0.0470924 10.8029 0 -0.019673 9.27215 0 0.00129461 11.0004 0
0.00330887 11.0025 0 0.00351275 11.0065 0 0.00217427 11.0106 0 -0.000955368
11.015 0 -0.00620584 11.0196 0 -0.0139785 11.0244 0 -0.0247614 11.0302
0 -0.0391102 11.0375 0 -0.057507 11.0479 0 -0.0802035 11.0628 0
-0.107025 11.0846 0 -0.137426 11.1149 0 -0.170595 11.1549 0 -0.205079
11.2064 0 -0.238895 11.2705 0 -0.269555 11.348 0 -0.294206 11.4391
0 -0.308613 11.5439 0 -0.312529 11.6587 0 -0.310027 11.7796 0
-0.301578 11.9053 0 -0.287758 12.034 0 -0.269238 12.1627 0 -0.246697
12.2862 0 -0.22076 12.3931 0 -0.191957 12.4572 0 -0.160489 12.4205
0 -0.125855 12.2027 0 -0.08977 11.7588 0 -0.0498799 11.0055 0
-0.0199775 9.47056 0 0.00121201 11.0003 0 0.00309941 11.0024 0 0.00321024
11.0062 0 0.00182447 11.0101 0 -0.00133754 11.0141 0 -0.00660047 11.0181
0 -0.0143888 11.0223 0 -0.0252293 11.0269 0 -0.0397491 11.0328 0
-0.0585573 11.0409 0 -0.0821196 11.0528 0 -0.110571 11.0706 0 -0.143485
11.0969 0 -0.179965 11.1333 0 -0.218859 11.1812 0 -0.258289 11.2422
0 -0.295818 11.3172 0 -0.32856 11.4069 0 -0.353343 11.5108 0
-0.365525 11.6288 0 -0.365331 11.7563 0 -0.357903 11.8889 0 -0.344033
12.025 0 -0.324574 12.1628 0 -0.300431 12.2995 0 -0.272462 12.4297
0 -0.241419 12.5426 0 -0.207941 12.6123 0 -0.172257 12.5832 0
-0.134097 12.3753 0 -0.0951145 11.9607 0 -0.0516766 11.2276 0 -0.0203594
9.66442 0 0.00114055 11.0003 0 0.00291884 11.0023 0 0.00295035 11.0059
0 0.00152759 11.0096 0 -0.00165117 11.0133 0 -0.00690643 11.0169 0
-0.0146757 11.0204 0 -0.0255115 11.0241 0 -0.0400905 11.0286 0 -0.0591154
11.0347 0 -0.0832149 11.0439 0 -0.112792 11.058 0 -0.1478 11.0794
0 -0.187468 11.1111 0 -0.230481 11.155 0 -0.275281 11.212 0
-0.31951 11.2837 0 -0.360283 11.3709 0 -0.394337 11.4737 0 -0.418226
11.5912 0 -0.426972 11.7228 0 -0.42144 11.8631 0 -0.407998 12.0069
0 -0.387791 12.1528 0 -0.361966 12.299 0 -0.331659 12.4427 0
-0.297894 12.5787 0 -0.261541 12.6963 0 -0.223293 12.7709 0 -0.183581
12.7479 0 -0.142337 12.5686 0 -0.0998438 12.1829 0 -0.0536436 11.4456
0 -0.0207678 9.85162 0 0.00107876 11.0003 0 0.00276244 11.0022 0
0.00272526 11.0057 0 0.00127524 11.0092 0 -0.00190968 11.0127 0 -0.00714269
11.0158 0 -0.0148682 11.0188 0 -0.0256543 11.0216 0 -0.0402106 11.0249
0 -0.0593057 11.0293 0 -0.0836898 11.036 0 -0.113973 11.0467 0
-0.150442 11.0636 0 -0.192783 11.0896 0 -0.239796 11.1279 0 -0.289659
11.1804 0 -0.340349 11.2479 0 -0.38902 11.3317 0 -0.43234 11.4322
0 -0.466705 11.549 0 -0.488487 11.6806 0 -0.492459 11.826 0
-0.480308 11.9788 0 -0.45976 12.1333 0 -0.432343 12.2883 0 -0.399493
12.4418 0 -0.362562 12.5914 0 -0.322727 12.732 0 -0.280921 12.8534
0 -0.23797 12.9313 0 -0.195148 12.9326 0 -0.150127 12.7818 0
-0.104354 12.4018 0 -0.055527 11.6572 0 -0.0211027 10.0308 0 0.00262562
11.0021 0 0.00100466 11.0003 0 0.00252897 11.0055 0 0.00106014 11.0089
0 -0.00212337 11.0121 0 -0.00732428 11.0149 0 -0.0149893 11.0173 0
-0.0256944 11.0194 0 -0.040169 11.0216 0 -0.0592267 11.0245 0 -0.0837051
11.0291 0 -0.114371 11.0367 0 -0.15177 11.0494 0 -0.195996 11.0699
0 -0.246396 11.1014 0 -0.301227 11.1476 0 -0.358067 11.2101 0
-0.41442 11.2895 0 -0.466931 11.3867 0 -0.511851 11.5016 0 -0.54531
11.6331 0 -0.563608 11.7791 0 -0.561379 11.9382 0 -0.541306 12.103
0 -0.512598 12.2675 0 -0.477168 12.4304 0 -0.436722 12.5903 0
-0.39281 12.7445 0 -0.346707 12.8886 0 -0.299428 13.0124 0 -0.253168
13.1114 0 -0.206428 13.1364 0 -0.157199 12.9921 0 -0.108421 12.6149
0 -0.0571255 11.8606 0 -0.0213454 10.2016 0 0.00235628 11.0053 0
0.00246564 11.002 0 0.000915555 11.0003 0 0.000874278 11.0085 0 -0.00230052
11.0115 0 -0.00746278 11.0141 0 -0.0150567 11.0161 0 -0.02566 11.0175
0 -0.0400122 11.0188 0 -0.0589553 11.0203 0 -0.0833878 11.0229 0
-0.11419 11.0278 0 -0.152109 11.0368 0 -0.197559 11.0522 0 -0.250381
11.0772 0 -0.309466 11.1154 0 -0.372413 11.1708 0 -0.436154 11.2449
0 -0.497687 11.3376 0 -0.553166 11.4493 0 -0.59849 11.5794 0
-0.629628 11.7261 0 -0.642937 11.8867 0 -0.633027 12.0591 0 -0.603752
12.2351 0 -0.565901 12.4085 0 -0.521749 12.5784 0 -0.47325 12.7432
0 -0.422089 12.9011 0 -0.369628 13.0472 0 -0.318741 13.1907 0
-0.26827 13.3101 0 -0.216556 13.3377 0 -0.1635 13.1975 0 -0.111885
12.8206 0 -0.0584282 12.055 0 -0.0214895 10.3634 0 0.000707918 11.0083
0 0.00216793 11.0051 0 0.00226622 11.0019 0 0.000829766 11.0002 4.26727e-19
-0.00244944 11.0111 0 -0.00756715 11.0134 0 -0.0150841 11.015 0 -0.025573
11.0159 0 -0.0397759 11.0163 0 -0.0585512 11.0166 0 -0.0828369 11.0175
0 -0.113595 11.0199 0 -0.151721 11.0255 0 -0.197879 11.0364 0
-0.252306 11.0553 0 -0.31448 11.0858 0 -0.382728 11.132 0 -0.453901
11.1981 0 -0.524202 11.2852 0 -0.590148 11.3926 0 -0.647451 11.52
0 -0.691749 11.6661 0 -0.718981 11.8283 0 -0.725704 12.0032 0
-0.706629 12.1882 0 -0.666937 12.3745 0 -0.619059 12.5557 0 -0.565598
12.7311 0 -0.508694 12.8998 0 -0.450129 13.0597 0 -0.393667 13.2252
0 -0.338183 13.3877 0 -0.281796 13.5064 0 -0.22557 13.5345 0
-0.16892 13.396 0 -0.114771 13.0179 0 -0.0594546 12.2399 0 -0.0215384
10.516 0 -0.00258559 11.0107 0 0.000545777 11.0079 0 0.00194394 11.0048
1.86827e-18 0.00207316 11.0018 -1.35112e-18 0.000747051 11.0002 -8.6604e-19 -0.00764628 11.0127 0
-0.0150812 11.014 0 -0.0254498 11.0144 0 -0.0394878 11.0141 0 -0.05806
11.0133 0 -0.0821291 11.0127 0 -0.112713 11.013 0 -0.150812 11.0155
0 -0.197285 11.0222 0 -0.252676 11.0356 0 -0.316943 11.0589 0
-0.389103 11.0961 0 -0.466824 11.1518 0 -0.546073 11.2302 0 -0.622302
11.332 0 -0.691598 11.4552 0 -0.749311 11.5992 0 -0.790945 11.7618
0 -0.812555 11.9395 0 -0.811051 12.1282 0 -0.781368 12.325 0
-0.730148 12.5204 0 -0.671489 12.708 0 -0.608256 12.8877 0 -0.542719
13.0586 0 -0.479645 13.2379 0 -0.418079 13.4219 0 -0.355639 13.5824
0 -0.293823 13.6985 0 -0.233384 13.725 0 -0.173486 13.5867 0
-0.117123 13.2061 0 -0.0602305 12.415 0 -0.0215049 10.6593 0 -0.00772311
11.0122 0 -0.00267992 11.0102 -3.78111e-18 0.000366868 11.0075 -1.96719e-18 0.00172748 11.0046
9.48462e-19 0.00188392 11.0017 -9.1367e-19 0.000667563 11.0002 0 -0.0150576 11.0131 0
-0.0253016 11.0131 0 -0.0391679 11.0121 0 -0.0575168 11.0104 0 -0.0813231
11.0084 0 -0.111641 11.0068 0 -0.149546 11.0067 0 -0.196036 11.0097
0 -0.251899 11.0181 0 -0.317472 11.0348 0 -0.392342 11.0636 0
-0.474978 11.1089 0 -0.562242 11.1755 0 -0.649129 11.2679 0 -0.730342
11.3857 0 -0.801625 11.5261 0 -0.858084 11.6874 0 -0.895233 11.8666
0 -0.909417 12.0595 0 -0.898053 12.2613 0 -0.856408 12.4687 0
-0.792689 12.6718 0 -0.722644 12.8644 0 -0.649314 13.0468 0 -0.578651
13.2374 0 -0.509815 13.435 0 -0.440076 13.6165 0 -0.371175 13.773
0 -0.304296 13.8847 0 -0.240018 13.9082 0 -0.177257 13.7689 0
-0.118988 13.3847 0 -0.0607874 12.58 0 -0.0214033 10.7933 0 -0.0150468
11.0124 0 -0.00770311 11.0115 7.95774e-18 -0.00274243 11.0096 0 0.000193253 11.007
1.9958e-18 0.00151925 11.0043 6.03981e-22 0.00169992 11.0016 0 0.000591329 11.0002 0
-0.0251384 11.012 0 -0.0388294 11.0104 0 -0.0569468 11.0079 0 -0.0804635
11.0047 0 -0.110454 11.0013 0 -0.148046 10.9988 0 -0.194339 10.9985
0 -0.250301 11.0024 0 -0.316569 11.0131 0 -0.393193 11.0342 0
-0.479312 11.0697 0 -0.572694 11.1246 0 -0.669298 11.2039 0 -0.763068
11.3118 0 -0.847995 11.4471 0 -0.919613 11.6056 0 -0.972928 11.7847
0 -1.00364 11.9805 0 -1.00856 12.188 0 -0.985752 12.4019 0
-0.93092 12.6184 0 -0.8539 12.8278 0 -0.772025 13.0238 0 -0.692819
13.2261 0 -0.61556 13.4353 0 -0.537106 13.6302 0 -0.459685 13.8071
0 -0.384765 13.9578 0 -0.31324 14.064 0 -0.245553 14.0836 0
-0.180302 13.9422 0 -0.12042 13.5537 0 -0.0611555 12.7351 0 -0.0212466
10.9184 0 -0.0250088 11.011 0 -0.0148617 11.0115 3.28779e-22 -0.00756778 11.0107
0 -0.00280304 11.009 -2.09982e-18 2.92146e-05 11.0066 4.62324e-22 0.00131786 11.0041 0
0.00151989 11.0015 0 0.000518335 11.0002 0 -0.0384827 11.0089 0 -0.0563655
11.0057 0 -0.0795822 11.0014 0 -0.10921 10.9965 0 -0.146409 10.9919
0 -0.192351 10.9886 0 -0.248137 10.9884 0 -0.314636 10.9938 0
-0.392266 11.0077 0 -0.480716 11.0342 0 -0.578532 11.0779 0 -0.682683
11.144 0 -0.788114 11.2376 0 -0.887672 11.3628 0 -0.974714 11.5168
0 -1.04475 11.6942 0 -1.09285 11.8913 0 -1.11511 12.1033 0
-1.10893 12.3245 0 -1.0732 12.5491 0 -1.00411 12.7733 0 -0.91317
12.9871 0 -0.824519 13.2038 0 -0.737691 13.4252 0 -0.649084 13.6315
0 -0.561496 13.8215 0 -0.476896 13.9921 0 -0.396447 14.136 0
-0.320755 14.2358 0 -0.250081 14.2505 0 -0.182692 14.1063 0 -0.121469
13.7128 0 -0.0613623 12.8804 0 -0.0210461 11.0347 0 -0.0381977 11.0076
0 -0.0245973 11.0098 -4.40054e-18 -0.0144346 11.0104 0 -0.00743685 11.0099 0
-0.00285014 11.0084 6.38746e-18 -0.000125728 11.0062 0 0.00112401 11.0038 0 0.00134467
11.0014 1.90393e-18 0.000448616 11.0002 0 -0.0557841 11.0037 0 -0.0786979 10.9984
0 -0.107949 10.9922 0 -0.144707 10.9857 0 -0.190193 10.9798 0
-0.245607 10.976 0 -0.31199 10.9765 0 -0.39005 10.9841 0 -0.479922
11.0023 0 -0.580804 11.0355 0 -0.690542 11.089 0 -0.80519 11.1679
0 -0.918602 11.2777 0 -1.0225 11.4216 0 -1.10975 11.5954 0
-1.17604 11.7921 0 -1.21673 12.0071 0 -1.22848 12.2346 0 -1.20948
12.4683 0 -1.15949 12.7022 0 -1.07525 12.9323 0 -0.976383 13.1677
0 -0.878849 13.404 0 -0.778587 13.6227 0 -0.679123 13.8241 0
-0.582978 14.0075 0 -0.491763 14.1706 0 -0.406334 14.3069 0 -0.32696
14.3995 0 -0.253703 14.4088 0 -0.184504 14.2611 0 -0.122185 13.8623
0 -0.0614329 13.0161 0 -0.0208123 11.1428 0 -0.0553015 11.0019 0
-0.0374839 11.0061 0 -0.0237604 11.0084 -4.8089e-18 -0.0140233 11.0094 -4.64121e-18 -0.00728622
11.0091 -8.95309e-18 -0.00288371 11.0078 0 -0.000271312 11.0058 -4.1591e-18 0.000937866 11.0036
-4.00604e-18 0.00117413 11.0013 1.92809e-18 0.0003821 11.0001 0 -0.0778227 10.9958 0
-0.106694 10.9885 0 -0.142992 10.9802 0 -0.187958 10.972 0 -0.242862
10.965 0 -0.308878 10.9612 0 -0.386935 10.9629 0 -0.477525 10.9736
0 -0.580378 10.9972 0 -0.694094 11.0388 0 -0.815709 11.1036 0