%!PS-Adobe-3.0 EPSF-3.0
%%LanguageLevel: 3
%%Title: wallHeatFlux_wallHeatFluxmax[Wm^2].eps
%%Creator: Matplotlib v3.10.0, https://matplotlib.org/
%%CreationDate: Mon Feb 17 10:46:12 2025
%%Orientation: portrait
%%BoundingBox: 0 0 461 346
%%HiResBoundingBox: 0.000000 0.000000 460.800000 345.600000
%%EndComments
%%BeginProlog
/mpldict 9 dict def
mpldict begin
/_d { bind def } bind def
/m { moveto } _d
/l { lineto } _d
/r { rlineto } _d
/c { curveto } _d
/cl { closepath } _d
/ce { closepath eofill } _d
/sc { setcachedevice } _d
%!PS-Adobe-3.0 Resource-Font
%%Creator: Converted from TrueType to Type 3 by Matplotlib.
10 dict begin
/FontName /DejaVuSans def
/PaintType 0 def
/FontMatrix [0.00048828125 0 0 0.00048828125 0 0] def
/FontBBox [-2090 -948 3673 2524] def
/FontType 3 def
/Encoding [/minus /space /period /slash /zero /one /two /three /four /five /six /eight /F /H /T /W /bracketleft /bracketright /asciicircum /a /b /c /d /e /i /k /l /m /p /r /s /t /u /w /x] def
/CharStrings 36 dict dup begin
/.notdef 0 def
/minus{1716 0 217 557 1499 727 sc
217 727 m
1499 727 l
1499 557 l
217 557 l
217 727 l

ce} _d
/space{651 0 0 0 0 0 sc
ce} _d
/period{651 0 219 0 430 254 sc
219 254 m
430 254 l
430 0 l
219 0 l
219 254 l

ce} _d
/slash{690 0 0 -190 690 1493 sc
520 1493 m
690 1493 l
170 -190 l
0 -190 l
520 1493 l

ce} _d
/zero{1303 0 135 -29 1167 1520 sc
651 1360 m
547 1360 469 1309 416 1206 c
364 1104 338 950 338 745 c
338 540 364 387 416 284 c
469 182 547 131 651 131 c
756 131 834 182 886 284 c
939 387 965 540 965 745 c
965 950 939 1104 886 1206 c
834 1309 756 1360 651 1360 c

651 1520 m
818 1520 946 1454 1034 1321 c
1123 1189 1167 997 1167 745 c
1167 494 1123 302 1034 169 c
946 37 818 -29 651 -29 c
484 -29 356 37 267 169 c
179 302 135 494 135 745 c
135 997 179 1189 267 1321 c
356 1454 484 1520 651 1520 c

ce} _d
/one{1303 0 225 0 1114 1493 sc
254 170 m
584 170 l
584 1309 l
225 1237 l
225 1421 l
582 1493 l
784 1493 l
784 170 l
1114 170 l
1114 0 l
254 0 l
254 170 l

ce} _d
/two{1303 0 150 0 1098 1520 sc
393 170 m
1098 170 l
1098 0 l
150 0 l
150 170 l
227 249 331 356 463 489 c
596 623 679 709 713 748 c
778 821 823 882 848 932 c
874 983 887 1032 887 1081 c
887 1160 859 1225 803 1275 c
748 1325 675 1350 586 1350 c
523 1350 456 1339 385 1317 c
315 1295 240 1262 160 1217 c
160 1421 l
241 1454 317 1478 388 1495 c
459 1512 523 1520 582 1520 c
737 1520 860 1481 952 1404 c
1044 1327 1090 1223 1090 1094 c
1090 1033 1078 974 1055 919 c
1032 864 991 800 930 725 c
913 706 860 650 771 557 c
682 465 556 336 393 170 c

ce} _d
/three{1303 0 156 -29 1139 1520 sc
831 805 m
928 784 1003 741 1057 676 c
1112 611 1139 530 1139 434 c
1139 287 1088 173 987 92 c
886 11 742 -29 555 -29 c
492 -29 428 -23 361 -10 c
295 2 227 20 156 45 c
156 240 l
212 207 273 183 340 166 c
407 149 476 141 549 141 c
676 141 772 166 838 216 c
905 266 938 339 938 434 c
938 522 907 591 845 640 c
784 690 698 715 588 715 c
414 715 l
414 881 l
596 881 l
695 881 771 901 824 940 c
877 980 903 1037 903 1112 c
903 1189 876 1247 821 1288 c
767 1329 689 1350 588 1350 c
533 1350 473 1344 410 1332 c
347 1320 277 1301 201 1276 c
201 1456 l
278 1477 349 1493 416 1504 c
483 1515 547 1520 606 1520 c
759 1520 881 1485 970 1415 c
1059 1346 1104 1252 1104 1133 c
1104 1050 1080 980 1033 923 c
986 866 918 827 831 805 c

ce} _d
/four{1303 0 100 0 1188 1493 sc
774 1317 m
264 520 l
774 520 l
774 1317 l

721 1493 m
975 1493 l
975 520 l
1188 520 l
1188 352 l
975 352 l
975 0 l
774 0 l
774 352 l
100 352 l
100 547 l
721 1493 l

ce} _d
/five{1303 0 158 -29 1124 1493 sc
221 1493 m
1014 1493 l
1014 1323 l
406 1323 l
406 957 l
435 967 465 974 494 979 c
523 984 553 987 582 987 c
749 987 881 941 978 850 c
1075 759 1124 635 1124 479 c
1124 318 1074 193 974 104 c
874 15 733 -29 551 -29 c
488 -29 424 -24 359 -13 c
294 -2 227 14 158 35 c
158 238 l
218 205 280 181 344 165 c
408 149 476 141 547 141 c
662 141 754 171 821 232 c
888 293 922 375 922 479 c
922 583 888 665 821 726 c
754 787 662 817 547 817 c
493 817 439 811 385 799 c
332 787 277 768 221 743 c
221 1493 l

ce} _d
/six{1303 0 143 -29 1174 1520 sc
676 827 m
585 827 513 796 460 734 c
407 672 381 587 381 479 c
381 372 407 287 460 224 c
513 162 585 131 676 131 c
767 131 838 162 891 224 c
944 287 971 372 971 479 c
971 587 944 672 891 734 c
838 796 767 827 676 827 c

1077 1460 m
1077 1276 l
1026 1300 975 1318 923 1331 c
872 1344 821 1350 770 1350 c
637 1350 535 1305 464 1215 c
394 1125 354 989 344 807 c
383 865 433 909 492 940 c
551 971 617 987 688 987 c
838 987 956 941 1043 850 c
1130 759 1174 636 1174 479 c
1174 326 1129 203 1038 110 c
947 17 827 -29 676 -29 c
503 -29 371 37 280 169 c
189 302 143 494 143 745 c
143 981 199 1169 311 1309 c
423 1450 573 1520 762 1520 c
813 1520 864 1515 915 1505 c
967 1495 1021 1480 1077 1460 c

ce} _d
/eight{1303 0 139 -29 1163 1520 sc
651 709 m
555 709 479 683 424 632 c
369 581 342 510 342 420 c
342 330 369 259 424 208 c
479 157 555 131 651 131 c
747 131 823 157 878 208 c
933 260 961 331 961 420 c
961 510 933 581 878 632 c
823 683 748 709 651 709 c

449 795 m
362 816 295 857 246 916 c
198 975 174 1048 174 1133 c
174 1252 216 1347 301 1416 c
386 1485 503 1520 651 1520 c
800 1520 916 1485 1001 1416 c
1086 1347 1128 1252 1128 1133 c
1128 1048 1104 975 1055 916 c
1007 857 940 816 854 795 c
951 772 1027 728 1081 662 c
1136 596 1163 515 1163 420 c
1163 275 1119 164 1030 87 c
942 10 816 -29 651 -29 c
486 -29 360 10 271 87 c
183 164 139 275 139 420 c
139 515 166 596 221 662 c
276 728 352 772 449 795 c

375 1114 m
375 1037 399 976 447 933 c
496 890 564 868 651 868 c
738 868 805 890 854 933 c
903 976 928 1037 928 1114 c
928 1191 903 1252 854 1295 c
805 1338 738 1360 651 1360 c
564 1360 496 1338 447 1295 c
399 1252 375 1191 375 1114 c

ce} _d
/F{1178 0 201 0 1059 1493 sc
201 1493 m
1059 1493 l
1059 1323 l
403 1323 l
403 883 l
995 883 l
995 713 l
403 713 l
403 0 l
201 0 l
201 1493 l

ce} _d
/H{1540 0 201 0 1339 1493 sc
201 1493 m
403 1493 l
403 881 l
1137 881 l
1137 1493 l
1339 1493 l
1339 0 l
1137 0 l
1137 711 l
403 711 l
403 0 l
201 0 l
201 1493 l

ce} _d
/T{1251 0 -6 0 1257 1493 sc
-6 1493 m
1257 1493 l
1257 1323 l
727 1323 l
727 0 l
524 0 l
524 1323 l
-6 1323 l
-6 1493 l

ce} _d
/W{2025 0 68 0 1958 1493 sc
68 1493 m
272 1493 l
586 231 l
899 1493 l
1126 1493 l
1440 231 l
1753 1493 l
1958 1493 l
1583 0 l
1329 0 l
1014 1296 l
696 0 l
442 0 l
68 1493 l

ce} _d
/bracketleft{799 0 176 -270 600 1556 sc
176 1556 m
600 1556 l
600 1413 l
360 1413 l
360 -127 l
600 -127 l
600 -270 l
176 -270 l
176 1556 l

ce} _d
/bracketright{799 0 199 -270 623 1556 sc
623 1556 m
623 -270 l
199 -270 l
199 -127 l
438 -127 l
438 1413 l
199 1413 l
199 1556 l
623 1556 l

ce} _d
/asciicircum{1716 0 217 936 1499 1493 sc
956 1493 m
1499 936 l
1298 936 l
858 1331 l
418 936 l
217 936 l
760 1493 l
956 1493 l

ce} _d
/a{1255 0 123 -29 1069 1147 sc
702 563 m
553 563 450 546 393 512 c
336 478 307 420 307 338 c
307 273 328 221 371 182 c
414 144 473 125 547 125 c
649 125 731 161 792 233 c
854 306 885 402 885 522 c
885 563 l
702 563 l

1069 639 m
1069 0 l
885 0 l
885 170 l
843 102 791 52 728 19 c
665 -13 589 -29 498 -29 c
383 -29 292 3 224 67 c
157 132 123 218 123 326 c
123 452 165 547 249 611 c
334 675 460 707 627 707 c
885 707 l
885 725 l
885 810 857 875 801 921 c
746 968 668 991 567 991 c
503 991 441 983 380 968 c
319 953 261 930 205 899 c
205 1069 l
272 1095 338 1114 401 1127 c
464 1140 526 1147 586 1147 c
748 1147 869 1105 949 1021 c
1029 937 1069 810 1069 639 c

ce} _d
/b{1300 0 186 -29 1188 1556 sc
997 559 m
997 694 969 800 913 877 c
858 954 781 993 684 993 c
587 993 510 954 454 877 c
399 800 371 694 371 559 c
371 424 399 317 454 240 c
510 163 587 125 684 125 c
781 125 858 163 913 240 c
969 317 997 424 997 559 c

371 950 m
410 1017 458 1066 517 1098 c
576 1131 647 1147 729 1147 c
865 1147 975 1093 1060 985 c
1145 877 1188 735 1188 559 c
1188 383 1145 241 1060 133 c
975 25 865 -29 729 -29 c
647 -29 576 -13 517 19 c
458 52 410 101 371 168 c
371 0 l
186 0 l
186 1556 l
371 1556 l
371 950 l

ce} _d
/c{1126 0 113 -29 999 1147 sc
999 1077 m
999 905 l
947 934 895 955 842 969 c
790 984 737 991 684 991 c
565 991 472 953 406 877 c
340 802 307 696 307 559 c
307 422 340 316 406 240 c
472 165 565 127 684 127 c
737 127 790 134 842 148 c
895 163 947 184 999 213 c
999 43 l
948 19 894 1 839 -11 c
784 -23 726 -29 664 -29 c
495 -29 361 24 262 130 c
163 236 113 379 113 559 c
113 742 163 885 263 990 c
364 1095 501 1147 676 1147 c
733 1147 788 1141 842 1129 c
896 1118 948 1100 999 1077 c

ce} _d
/d{1300 0 113 -29 1114 1556 sc
930 950 m
930 1556 l
1114 1556 l
1114 0 l
930 0 l
930 168 l
891 101 842 52 783 19 c
724 -13 654 -29 571 -29 c
436 -29 325 25 240 133 c
155 241 113 383 113 559 c
113 735 155 877 240 985 c
325 1093 436 1147 571 1147 c
654 1147 724 1131 783 1098 c
842 1066 891 1017 930 950 c

303 559 m
303 424 331 317 386 240 c
442 163 519 125 616 125 c
713 125 790 163 846 240 c
902 317 930 424 930 559 c
930 694 902 800 846 877 c
790 954 713 993 616 993 c
519 993 442 954 386 877 c
331 800 303 694 303 559 c

ce} _d
/e{1260 0 113 -29 1151 1147 sc
1151 606 m
1151 516 l
305 516 l
313 389 351 293 419 226 c
488 160 583 127 705 127 c
776 127 844 136 910 153 c
977 170 1043 196 1108 231 c
1108 57 l
1042 29 974 8 905 -7 c
836 -22 765 -29 694 -29 c
515 -29 374 23 269 127 c
165 231 113 372 113 549 c
113 732 162 878 261 985 c
360 1093 494 1147 662 1147 c
813 1147 932 1098 1019 1001 c
1107 904 1151 773 1151 606 c

967 660 m
966 761 937 841 882 901 c
827 961 755 991 664 991 c
561 991 479 962 417 904 c
356 846 320 764 311 659 c
967 660 l

ce} _d
/i{569 0 193 0 377 1556 sc
193 1120 m
377 1120 l
377 0 l
193 0 l
193 1120 l

193 1556 m
377 1556 l
377 1323 l
193 1323 l
193 1556 l

ce} _d
/k{1186 0 186 0 1180 1556 sc
186 1556 m
371 1556 l
371 637 l
920 1120 l
1155 1120 l
561 596 l
1180 0 l
940 0 l
371 547 l
371 0 l
186 0 l
186 1556 l

ce} _d
/l{569 0 193 0 377 1556 sc
193 1556 m
377 1556 l
377 0 l
193 0 l
193 1556 l

ce} _d
/m{1995 0 186 0 1821 1147 sc
1065 905 m
1111 988 1166 1049 1230 1088 c
1294 1127 1369 1147 1456 1147 c
1573 1147 1663 1106 1726 1024 c
1789 943 1821 827 1821 676 c
1821 0 l
1636 0 l
1636 670 l
1636 777 1617 857 1579 909 c
1541 961 1483 987 1405 987 c
1310 987 1234 955 1179 892 c
1124 829 1096 742 1096 633 c
1096 0 l
911 0 l
911 670 l
911 778 892 858 854 909 c
816 961 757 987 678 987 c
584 987 509 955 454 891 c
399 828 371 742 371 633 c
371 0 l
186 0 l
186 1120 l
371 1120 l
371 946 l
413 1015 463 1065 522 1098 c
581 1131 650 1147 731 1147 c
812 1147 881 1126 938 1085 c
995 1044 1038 984 1065 905 c

ce} _d
/p{1300 0 186 -426 1188 1147 sc
371 168 m
371 -426 l
186 -426 l
186 1120 l
371 1120 l
371 950 l
410 1017 458 1066 517 1098 c
576 1131 647 1147 729 1147 c
865 1147 975 1093 1060 985 c
1145 877 1188 735 1188 559 c
1188 383 1145 241 1060 133 c
975 25 865 -29 729 -29 c
647 -29 576 -13 517 19 c
458 52 410 101 371 168 c

997 559 m
997 694 969 800 913 877 c
858 954 781 993 684 993 c
587 993 510 954 454 877 c
399 800 371 694 371 559 c
371 424 399 317 454 240 c
510 163 587 125 684 125 c
781 125 858 163 913 240 c
969 317 997 424 997 559 c

ce} _d
/r{842 0 186 0 842 1147 sc
842 948 m
821 960 799 969 774 974 c
750 980 723 983 694 983 c
590 983 510 949 454 881 c
399 814 371 717 371 590 c
371 0 l
186 0 l
186 1120 l
371 1120 l
371 946 l
410 1014 460 1064 522 1097 c
584 1130 659 1147 748 1147 c
761 1147 775 1146 790 1144 c
805 1143 822 1140 841 1137 c
842 948 l

ce} _d
/s{1067 0 111 -29 967 1147 sc
907 1087 m
907 913 l
855 940 801 960 745 973 c
689 986 631 993 571 993 c
480 993 411 979 365 951 c
320 923 297 881 297 825 c
297 782 313 749 346 724 c
379 700 444 677 543 655 c
606 641 l
737 613 829 573 884 522 c
939 471 967 400 967 309 c
967 205 926 123 843 62 c
761 1 648 -29 504 -29 c
444 -29 381 -23 316 -11 c
251 0 183 18 111 41 c
111 231 l
179 196 246 169 312 151 c
378 134 443 125 508 125 c
595 125 661 140 708 169 c
755 199 778 241 778 295 c
778 345 761 383 727 410 c
694 437 620 462 506 487 c
442 502 l
328 526 246 563 195 612 c
144 662 119 730 119 817 c
119 922 156 1004 231 1061 c
306 1118 412 1147 549 1147 c
617 1147 681 1142 741 1132 c
801 1122 856 1107 907 1087 c

ce} _d
/t{803 0 55 0 754 1438 sc
375 1438 m
375 1120 l
754 1120 l
754 977 l
375 977 l
375 369 l
375 278 387 219 412 193 c
437 167 488 154 565 154 c
754 154 l
754 0 l
565 0 l
423 0 325 26 271 79 c
217 132 190 229 190 369 c
190 977 l
55 977 l
55 1120 l
190 1120 l
190 1438 l
375 1438 l

ce} _d
/u{1298 0 174 -29 1112 1147 sc
174 442 m
174 1120 l
358 1120 l
358 449 l
358 343 379 263 420 210 c
461 157 523 131 606 131 c
705 131 784 163 841 226 c
899 289 928 376 928 485 c
928 1120 l
1112 1120 l
1112 0 l
928 0 l
928 172 l
883 104 831 53 772 20 c
713 -13 645 -29 567 -29 c
438 -29 341 11 274 91 c
207 171 174 288 174 442 c

637 1147 m
637 1147 l

ce} _d
/w{1675 0 86 0 1589 1120 sc
86 1120 m
270 1120 l
500 246 l
729 1120 l
946 1120 l
1176 246 l
1405 1120 l
1589 1120 l
1296 0 l
1079 0 l
838 918 l
596 0 l
379 0 l
86 1120 l

ce} _d
/x{1212 0 59 0 1145 1120 sc
1124 1120 m
719 575 l
1145 0 l
928 0 l
602 440 l
276 0 l
59 0 l
494 586 l
96 1120 l
313 1120 l
610 721 l
907 1120 l
1124 1120 l

ce} _d
end readonly def

/BuildGlyph {
 exch begin
 CharStrings exch
 2 copy known not {pop /.notdef} if
 true 3 1 roll get exec
 end
} _d

/BuildChar {
 1 index /Encoding get exch get
 1 index /BuildGlyph get exec
} _d

FontName currentdict end definefont pop
end
%%EndProlog
mpldict begin
0 0 translate
0 0 460.8 345.6 rectclip
gsave
0 0 m
460.8 0 l
460.8 345.6 l
0 345.6 l
cl
1 setgray
fill
grestore
gsave
57.6 38.016 m
414.72 38.016 l
414.72 304.128 l
57.6 304.128 l
cl
1 setgray
fill
grestore
0.8 setlinewidth
1 setlinejoin
2 setlinecap
[] 0 setdash
0.69 setgray
gsave
57.6 38.016 357.12 266.112 rectclip
73.832727 38.016 m
73.832727 304.128 l
stroke
grestore
0 setlinecap
0 setgray
gsave
/o {
gsave
newpath
translate
0.8 setlinewidth
1 setlinejoin

0 setlinecap

0 0 m
0 -3.5 l

gsave
0 setgray
fill
grestore
stroke
grestore
} bind def
73.8327 38.016 o
grestore
/DejaVuSans 10.000 selectfont
gsave

65.8796 23.4222 translate
0 rotate
0 0 m /zero glyphshow
6.3623 0 m /period glyphshow
9.54102 0 m /zero glyphshow
grestore
2 setlinecap
0.69 setgray
gsave
57.6 38.016 357.12 266.112 rectclip
138.763636 38.016 m
138.763636 304.128 l
stroke
grestore
0 setlinecap
0 setgray
gsave
/o {
gsave
newpath
translate
0.8 setlinewidth
1 setlinejoin

0 setlinecap

0 0 m
0 -3.5 l

gsave
0 setgray
fill
grestore
stroke
grestore
} bind def
138.764 38.016 o
grestore
/DejaVuSans 10.000 selectfont
gsave

130.811 23.4222 translate
0 rotate
0 0 m /zero glyphshow
6.3623 0 m /period glyphshow
9.54102 0 m /one glyphshow
grestore
2 setlinecap
0.69 setgray
gsave
57.6 38.016 357.12 266.112 rectclip
203.694545 38.016 m
203.694545 304.128 l
stroke
grestore
0 setlinecap
0 setgray
gsave
/o {
gsave
newpath
translate
0.8 setlinewidth
1 setlinejoin

0 setlinecap

0 0 m
0 -3.5 l

gsave
0 setgray
fill
grestore
stroke
grestore
} bind def
203.695 38.016 o
grestore
/DejaVuSans 10.000 selectfont
gsave

195.741 23.4222 translate
0 rotate
0 0 m /zero glyphshow
6.3623 0 m /period glyphshow
9.54102 0 m /two glyphshow
grestore
2 setlinecap
0.69 setgray
gsave
57.6 38.016 357.12 266.112 rectclip
268.625455 38.016 m
268.625455 304.128 l
stroke
grestore
0 setlinecap
0 setgray
gsave
/o {
gsave
newpath
translate
0.8 setlinewidth
1 setlinejoin

0 setlinecap

0 0 m
0 -3.5 l

gsave
0 setgray
fill
grestore
stroke
grestore
} bind def
268.625 38.016 o
grestore
/DejaVuSans 10.000 selectfont
gsave

260.672 23.4222 translate
0 rotate
0 0 m /zero glyphshow
6.3623 0 m /period glyphshow
9.54102 0 m /three glyphshow
grestore
2 setlinecap
0.69 setgray
gsave
57.6 38.016 357.12 266.112 rectclip
333.556364 38.016 m
333.556364 304.128 l
stroke
grestore
0 setlinecap
0 setgray
gsave
/o {
gsave
newpath
translate
0.8 setlinewidth
1 setlinejoin

0 setlinecap

0 0 m
0 -3.5 l

gsave
0 setgray
fill
grestore
stroke
grestore
} bind def
333.556 38.016 o
grestore
/DejaVuSans 10.000 selectfont
gsave

325.603 23.4222 translate
0 rotate
0 0 m /zero glyphshow
6.3623 0 m /period glyphshow
9.54102 0 m /four glyphshow
grestore
2 setlinecap
0.69 setgray
gsave
57.6 38.016 357.12 266.112 rectclip
398.487273 38.016 m
398.487273 304.128 l
stroke
grestore
0 setlinecap
0 setgray
gsave
/o {
gsave
newpath
translate
0.8 setlinewidth
1 setlinejoin

0 setlinecap

0 0 m
0 -3.5 l

gsave
0 setgray
fill
grestore
stroke
grestore
} bind def
398.487 38.016 o
grestore
/DejaVuSans 10.000 selectfont
gsave

390.534 23.4222 translate
0 rotate
0 0 m /zero glyphshow
6.3623 0 m /period glyphshow
9.54102 0 m /five glyphshow
grestore
/DejaVuSans 10.000 selectfont
gsave

215.777 9.75037 translate
0 rotate
0 0 m /T glyphshow
5.8584 0 m /i glyphshow
8.63672 0 m /m glyphshow
18.3779 0 m /e glyphshow
24.5303 0 m /space glyphshow
27.709 0 m /bracketleft glyphshow
31.6104 0 m /s glyphshow
36.8203 0 m /bracketright glyphshow
grestore
2 setlinecap
0.69 setgray
gsave
57.6 38.016 357.12 266.112 rectclip
57.6 49.2764 m
414.72 49.2764 l
stroke
grestore
0 setlinecap
0 setgray
gsave
/o {
gsave
newpath
translate
0.8 setlinewidth
1 setlinejoin

0 setlinecap

-0 0 m
-3.5 0 l

gsave
0 setgray
fill
grestore
stroke
grestore
} bind def
57.6 49.2764 o
grestore
/DejaVuSans 10.000 selectfont
gsave

16.7875 45.4795 translate
0 rotate
0 0 m /minus glyphshow
8.37891 0 m /two glyphshow
14.7412 0 m /zero glyphshow
21.1035 0 m /zero glyphshow
27.4658 0 m /zero glyphshow
grestore
2 setlinecap
0.69 setgray
gsave
57.6 38.016 357.12 266.112 rectclip
57.6 86.68269 m
414.72 86.68269 l
stroke
grestore
0 setlinecap
0 setgray
gsave
/o {
gsave
newpath
translate
0.8 setlinewidth
1 setlinejoin

0 setlinecap

-0 0 m
-3.5 0 l

gsave
0 setgray
fill
grestore
stroke
grestore
} bind def
57.6 86.6827 o
grestore
/DejaVuSans 10.000 selectfont
gsave

44.2406 82.8858 translate
0 rotate
0 0 m /zero glyphshow
grestore
2 setlinecap
0.69 setgray
gsave
57.6 38.016 357.12 266.112 rectclip
57.6 124.08898 m
414.72 124.08898 l
stroke
grestore
0 setlinecap
0 setgray
gsave
/o {
gsave
newpath
translate
0.8 setlinewidth
1 setlinejoin

0 setlinecap

-0 0 m
-3.5 0 l

gsave
0 setgray
fill
grestore
stroke
grestore
} bind def
57.6 124.089 o
grestore
/DejaVuSans 10.000 selectfont
gsave

25.1625 120.292 translate
0 rotate
0 0 m /two glyphshow
6.3623 0 m /zero glyphshow
12.7246 0 m /zero glyphshow
19.0869 0 m /zero glyphshow
grestore
2 setlinecap
0.69 setgray
gsave
57.6 38.016 357.12 266.112 rectclip
57.6 161.49527 m
414.72 161.49527 l
stroke
grestore
0 setlinecap
0 setgray
gsave
/o {
gsave
newpath
translate
0.8 setlinewidth
1 setlinejoin

0 setlinecap

-0 0 m
-3.5 0 l

gsave
0 setgray
fill
grestore
stroke
grestore
} bind def
57.6 161.495 o
grestore
/DejaVuSans 10.000 selectfont
gsave

25.1625 157.698 translate
0 rotate
0 0 m /four glyphshow
6.3623 0 m /zero glyphshow
12.7246 0 m /zero glyphshow
19.0869 0 m /zero glyphshow
grestore
2 setlinecap
0.69 setgray
gsave
57.6 38.016 357.12 266.112 rectclip
57.6 198.90156 m
414.72 198.90156 l
stroke
grestore
0 setlinecap
0 setgray
gsave
/o {
gsave
newpath
translate
0.8 setlinewidth
1 setlinejoin

0 setlinecap

-0 0 m
-3.5 0 l

gsave
0 setgray
fill
grestore
stroke
grestore
} bind def
57.6 198.902 o
grestore
/DejaVuSans 10.000 selectfont
gsave

25.1625 195.105 translate
0 rotate
0 0 m /six glyphshow
6.3623 0 m /zero glyphshow
12.7246 0 m /zero glyphshow
19.0869 0 m /zero glyphshow
grestore
2 setlinecap
0.69 setgray
gsave
57.6 38.016 357.12 266.112 rectclip
57.6 236.30785 m
414.72 236.30785 l
stroke
grestore
0 setlinecap
0 setgray
gsave
/o {
gsave
newpath
translate
0.8 setlinewidth
1 setlinejoin

0 setlinecap

-0 0 m
-3.5 0 l

gsave
0 setgray
fill
grestore
stroke
grestore
} bind def
57.6 236.308 o
grestore
/DejaVuSans 10.000 selectfont
gsave

25.1625 232.511 translate
0 rotate
0 0 m /eight glyphshow
6.3623 0 m /zero glyphshow
12.7246 0 m /zero glyphshow
19.0869 0 m /zero glyphshow
grestore
2 setlinecap
0.69 setgray
gsave
57.6 38.016 357.12 266.112 rectclip
57.6 273.71414 m
414.72 273.71414 l
stroke
grestore
0 setlinecap
0 setgray
gsave
/o {
gsave
newpath
translate
0.8 setlinewidth
1 setlinejoin

0 setlinecap

-0 0 m
-3.5 0 l

gsave
0 setgray
fill
grestore
stroke
grestore
} bind def
57.6 273.714 o
grestore
/DejaVuSans 10.000 selectfont
gsave

18.8031 269.917 translate
0 rotate
0 0 m /one glyphshow
6.3623 0 m /zero glyphshow
12.7246 0 m /zero glyphshow
19.0869 0 m /zero glyphshow
25.4492 0 m /zero glyphshow
grestore
1.5 setlinewidth
2 setlinecap
0.122 0.467 0.706 setrgbcolor
gsave
57.6 38.016 357.12 266.112 rectclip
73.832727 227.338027 m
80.325818 213.838602 l
86.818909 216.179824 l
93.312 216.263296 l
99.805091 216.330759 l
106.298182 219.351971 l
112.791273 221.29923 l
119.284364 220.765761 l
125.777455 219.359265 l
132.270545 218.350624 l
138.763636 218.016006 l
145.256727 217.897446 l
151.749818 217.478346 l
158.242909 217.241078 l
164.736 217.152631 l
171.229091 217.092557 l
177.722182 217.071515 l
184.215273 217.095063 l
190.708364 217.046996 l
197.201455 217.079539 l
203.694545 217.096746 l
210.187636 217.101833 l
216.680727 217.089583 l
223.173818 217.069215 l
229.666909 217.06063 l
236.16 217.160973 l
242.653091 217.242948 l
249.146182 217.247288 l
255.639273 217.256527 l
262.132364 217.276128 l
268.625455 217.191702 l
275.118545 216.995431 l
281.611636 216.985537 l
288.104727 216.986977 l
294.597818 217.162862 l
301.090909 217.183211 l
307.584 217.227705 l
314.077091 217.196957 l
320.570182 217.003324 l
327.063273 217.078249 l
333.556364 216.979215 l
340.049455 217.172924 l
346.542545 217.207487 l
353.035636 217.253104 l
359.528727 217.227687 l
366.021818 217.020662 l
372.514909 216.922695 l
379.008 216.974708 l
385.501091 217.168641 l
391.994182 217.208161 l
398.487273 217.258472 l
stroke
grestore
1 0.498 0.055 setrgbcolor
gsave
57.6 38.016 357.12 266.112 rectclip
73.832727 292.032 m
80.325818 217.639212 l
86.818909 207.837717 l
93.312 196.733641 l
99.805091 189.270861 l
106.298182 183.19204 l
112.791273 177.859923 l
119.284364 172.979319 l
125.777455 168.183252 l
132.270545 163.435983 l
138.763636 158.635802 l
145.256727 153.648234 l
151.749818 148.592737 l
158.242909 142.188911 l
164.736 135.332918 l
171.229091 128.247755 l
177.722182 120.305034 l
184.215273 112.478554 l
190.708364 104.723631 l
197.201455 98.994136 l
203.694545 94.689542 l
210.187636 90.970689 l
216.680727 87.938688 l
223.173818 85.841981 l
229.666909 83.616655 l
236.16 80.988223 l
242.653091 77.820919 l
249.146182 74.163521 l
255.639273 70.285177 l
262.132364 66.505943 l
268.625455 63.111397 l
275.118545 60.223986 l
281.611636 57.910819 l
288.104727 56.121657 l
294.597818 54.767175 l
301.090909 53.719818 l
307.584 52.893438 l
314.077091 52.259963 l
320.570182 51.744336 l
327.063273 51.366588 l
333.556364 51.094925 l
340.049455 50.903891 l
346.542545 50.735993 l
353.035636 50.569928 l
359.528727 50.437996 l
366.021818 50.306382 l
372.514909 50.226201 l
379.008 50.187318 l
385.501091 50.181202 l
391.994182 50.161208 l
398.487273 50.112 l
stroke
grestore
0.173 0.627 0.173 setrgbcolor
gsave
57.6 38.016 357.12 266.112 rectclip
73.832727 231.035976 m
80.325818 210.130311 l
86.818909 209.984033 l
93.312 209.87303 l
99.805091 209.798236 l
106.298182 209.751778 l
112.791273 209.719029 l
119.284364 209.690806 l
125.777455 209.662452 l
132.270545 209.652876 l
138.763636 209.646217 l
145.256727 209.640008 l
151.749818 209.635762 l
158.242909 209.634004 l
164.736 209.632283 l
171.229091 209.628262 l
177.722182 209.631629 l
184.215273 209.632751 l
190.708364 209.632115 l
197.201455 209.633293 l
203.694545 209.63219 l
210.187636 209.63002 l
216.680727 209.624821 l
223.173818 209.620856 l
229.666909 209.616891 l
236.16 209.623343 l
242.653091 209.621754 l
249.146182 209.615451 l
255.639273 209.616666 l
262.132364 209.635874 l
268.625455 209.643692 l
275.118545 209.626429 l
281.611636 209.601666 l
288.104727 209.59181 l
294.597818 209.611093 l
301.090909 209.610494 l
307.584 209.629441 l
314.077091 209.647489 l
320.570182 209.63479 l
327.063273 209.606922 l
333.556364 209.591754 l
340.049455 209.611299 l
346.542545 209.611616 l
353.035636 209.629141 l
359.528727 209.648106 l
366.021818 209.636136 l
372.514909 209.607726 l
379.008 209.590688 l
385.501091 209.610251 l
391.994182 209.611037 l
398.487273 209.627626 l
stroke
grestore
0.8 setlinewidth
0 setlinejoin
0 setgray
gsave
57.6 38.016 m
57.6 304.128 l
stroke
grestore
gsave
414.72 38.016 m
414.72 304.128 l
stroke
grestore
gsave
57.6 38.016 m
414.72 38.016 l
stroke
grestore
gsave
57.6 304.128 m
414.72 304.128 l
stroke
grestore
/DejaVuSans 12.000 selectfont
gsave

197.527 310.128 translate
0 rotate
0 0 m /w glyphshow
9.81445 0 m /a glyphshow
17.168 0 m /l glyphshow
20.502 0 m /l glyphshow
23.8359 0 m /H glyphshow
32.8594 0 m /e glyphshow
40.2422 0 m /a glyphshow
47.5957 0 m /t glyphshow
52.3008 0 m /F glyphshow
59.2031 0 m /l glyphshow
62.5371 0 m /u glyphshow
70.1426 0 m /x glyphshow
grestore
1 setlinewidth
0 setlinecap
0.8 setgray
gsave
199.173125 252.112375 m
407.72 252.112375 l
409.053333 252.112375 409.72 252.779042 409.72 254.112375 c
409.72 297.128 l
409.72 298.461333 409.053333 299.128 407.72 299.128 c
199.173125 299.128 l
197.839792 299.128 197.173125 298.461333 197.173125 297.128 c
197.173125 254.112375 l
197.173125 252.779042 197.839792 252.112375 199.173125 252.112375 c
cl
gsave
1 setgray
fill
grestore
stroke
grestore
1.5 setlinewidth
1 setlinejoin
2 setlinecap
0.122 0.467 0.706 setrgbcolor
gsave
201.173125 291.03425 m
211.173125 291.03425 l
221.173125 291.03425 l
stroke
grestore
0 setgray
/DejaVuSans 10.000 selectfont
gsave

229.173 287.534 translate
0 rotate
0 0 m /s glyphshow
5.20996 0 m /p glyphshow
11.5576 0 m /l glyphshow
14.3359 0 m /i glyphshow
17.1143 0 m /t glyphshow
21.0352 0 m /t glyphshow
24.9561 0 m /e glyphshow
31.1084 0 m /r glyphshow
35.2197 0 m /space glyphshow
38.3984 0 m /w glyphshow
46.5771 0 m /a glyphshow
52.7051 0 m /l glyphshow
55.4834 0 m /l glyphshow
58.2617 0 m /H glyphshow
65.7812 0 m /e glyphshow
71.9336 0 m /a glyphshow
78.0615 0 m /t glyphshow
81.9824 0 m /F glyphshow
87.7344 0 m /l glyphshow
90.5127 0 m /u glyphshow
96.8506 0 m /x glyphshow
102.769 0 m /space glyphshow
105.947 0 m /m glyphshow
115.688 0 m /a glyphshow
121.816 0 m /x glyphshow
127.734 0 m /space glyphshow
130.913 0 m /bracketleft glyphshow
134.814 0 m /W glyphshow
144.702 0 m /slash glyphshow
148.071 0 m /m glyphshow
157.812 0 m /asciicircum glyphshow
166.191 0 m /two glyphshow
172.554 0 m /bracketright glyphshow
grestore
1 0.498 0.055 setrgbcolor
gsave
201.173125 276.362375 m
211.173125 276.362375 l
221.173125 276.362375 l
stroke
grestore
0 setgray
/DejaVuSans 10.000 selectfont
gsave

229.173 272.862 translate
0 rotate
0 0 m /b glyphshow
6.34766 0 m /a glyphshow
12.4756 0 m /c glyphshow
17.9736 0 m /k glyphshow
23.7646 0 m /space glyphshow
26.9434 0 m /w glyphshow
35.1221 0 m /a glyphshow
41.25 0 m /l glyphshow
44.0283 0 m /l glyphshow
46.8066 0 m /H glyphshow
54.3262 0 m /e glyphshow
60.4785 0 m /a glyphshow
66.6064 0 m /t glyphshow
70.5273 0 m /F glyphshow
76.2793 0 m /l glyphshow
79.0576 0 m /u glyphshow
85.3955 0 m /x glyphshow
91.3135 0 m /space glyphshow
94.4922 0 m /m glyphshow
104.233 0 m /a glyphshow
110.361 0 m /x glyphshow
116.279 0 m /space glyphshow
119.458 0 m /bracketleft glyphshow
123.359 0 m /W glyphshow
133.247 0 m /slash glyphshow
136.616 0 m /m glyphshow
146.357 0 m /asciicircum glyphshow
154.736 0 m /two glyphshow
161.099 0 m /bracketright glyphshow
grestore
0.173 0.627 0.173 setrgbcolor
gsave
201.173125 261.6905 m
211.173125 261.6905 l
221.173125 261.6905 l
stroke
grestore
0 setgray
/DejaVuSans 10.000 selectfont
gsave

229.173 258.19 translate
0 rotate
0 0 m /s glyphshow
5.20996 0 m /i glyphshow
7.98828 0 m /d glyphshow
14.3359 0 m /e glyphshow
20.4883 0 m /s glyphshow
25.6982 0 m /space glyphshow
28.877 0 m /w glyphshow
37.0557 0 m /a glyphshow
43.1836 0 m /l glyphshow
45.9619 0 m /l glyphshow
48.7402 0 m /H glyphshow
56.2598 0 m /e glyphshow
62.4121 0 m /a glyphshow
68.54 0 m /t glyphshow
72.4609 0 m /F glyphshow
78.2129 0 m /l glyphshow
80.9912 0 m /u glyphshow
87.3291 0 m /x glyphshow
93.2471 0 m /space glyphshow
96.4258 0 m /m glyphshow
106.167 0 m /a glyphshow
112.295 0 m /x glyphshow
118.213 0 m /space glyphshow
121.392 0 m /bracketleft glyphshow
125.293 0 m /W glyphshow
135.181 0 m /slash glyphshow
138.55 0 m /m glyphshow
148.291 0 m /asciicircum glyphshow
156.67 0 m /two glyphshow
163.032 0 m /bracketright glyphshow
grestore

end
showpage
