# vtk DataFile Version 2.0
sampleSurface
ASCII
DATASET POLYDATA
POINTS 15978 float
-4.26165e-19 0.000133477 0 -4.18079e-19 -0.000798814 0 -4.33681e-19 0.001 0 -4.09379e-19 -0.00180187
0 -0.00181681 0.000361473 0 0.00181681 0.000361473 0 -0.00181396 -0.000575145 0
0.00181396 -0.000575145 0 -0.00181945 0.00123202 0 0.00181945 0.00123202 0 -0.00181089
-0.00158285 0 0.00181089 -0.00158285 0 -4.00018e-19 -0.00288105 0 -0.00180759 -0.00266704
0 0.00180759 -0.00266704 0 -0.00351565 8.15481e-05 0 0.00351565 8.15481e-05 0
-0.00351186 -0.000939823 0 0.00351186 -0.000939823 0 -0.00351918 0.00103087 0 0.00351918
0.00103087 0 -0.00352245 0.00191322 0 0.00352245 0.00191322 0 -3.89947e-19 -0.00404214
0 -0.00350777 -0.00203871 0 0.00350777 -0.00203871 0 -0.00180405 -0.00383352 0
0.00180405 -0.00383352 0 -0.00350338 -0.00322101 0 0.00350338 -0.00322101 0 -0.005
8.60602e-05 0 0.005 8.60602e-05 0 -0.005 -0.00103629 0 0.005 -0.00103629
0 -0.005 0.00112923 0 0.005 0.00112923 0 -3.79112e-19 -0.00529135 0
-0.00180023 -0.00508853 0 0.00180023 -0.00508853 0 -0.005 0.00209882 0 0.005
0.00209882 0 -0.005 -0.00224382 0 0.005 -0.00224382 0 -0.00349866 -0.00449304
0 0.00349866 -0.00449304 0 -0.005 0.003 0 0.005 0.003 0
-0.005 -0.003543 0 0.005 -0.003543 0 -0.00637208 2.82617e-05 0 0.00639053
4.25732e-05 0 -0.00637208 0.00114892 0 -0.00637208 -0.00117745 0 0.00639053 -0.00116311
0 0.00639053 0.00116321 0 -3.67455e-19 -0.00663538 0 -0.00179612 -0.00643879 0
0.00179612 -0.00643879 0 -0.00637208 0.00219052 0 0.00639053 0.00220479 0 -0.00349357
-0.00586162 0 0.00349357 -0.00586162 0 -0.00637208 -0.00247467 0 0.00639053 -0.00246031
0 -0.005 -0.00494079 0 0.005 -0.00494079 0 -0.00637208 0.00315864 0
0.00639053 0.00317289 0 -0.00637208 -0.00387036 0 0.00639053 -0.00385597 0 -0.00637208
0.00405846 0 0.00639053 0.00407269 0 -0.00778421 -7.99569e-05 0 0.00781802 -5.3679e-05
0 -0.00778421 0.00112388 0 0.00781802 0.00115011 0 -0.00778421 -0.00137517 0
0.00781802 -0.00134884 0 -3.54912e-19 -0.00808142 0 -0.0017917 -0.00789154 0 0.0017917
-0.00789154 0 -0.00778421 0.0022428 0 -0.0034881 -0.00733407 0 0.0034881 -0.00733407
0 0.00781802 0.00226899 0 -0.005 -0.00644467 0 0.005 -0.00644467 0
-0.00778421 -0.00276868 0 0.00781802 -0.0027423 0 -0.00637208 -0.00537197 0 0.00639053
-0.00535755 0 -0.00778421 0.00328278 0 0.00781802 0.00330893 0 -0.00778421 0.00424939
0 -0.00778421 -0.00426796 0 0.00781802 -0.00424152 0 0.00781802 0.00427551 0
-0.00923755 -0.000243565 0 0.00928347 -0.000207818 0 -0.00923755 0.00104957 0 -0.00778421
0.00514782 0 0.00928347 0.00108525 0 0.00781802 0.0051739 0 -0.00923755 -0.00163485
0 0.00928347 -0.00159903 0 -0.00637208 -0.00698755 0 0.00639053 -0.0069731 0
-0.005 -0.0080627 0 0.005 -0.0080627 0 -0.00923755 0.00225148 0 0.00928347
0.0022871 0 -0.00348222 -0.00891827 0 0.00348222 -0.00891827 0 -0.00178695 -0.00945455
0 0.00178695 -0.00945455 0 -3.41418e-19 -0.00963721 0 -0.00923755 -0.00313172 0
-0.00778421 -0.00588103 0 0.00781802 -0.00585453 0 0.00928347 -0.00309583 0 -0.00923755
0.0033686 0 0.00928347 0.00340416 0 -0.00923755 0.00440692 0 0.00928347 0.00444243
0 -0.00923755 -0.00474221 0 0.00928347 -0.00470623 0 -0.00923755 0.00537198 0
-0.0107333 -0.000467921 0 0.00928347 0.00540745 0 -0.0107333 0.000921062 0 0.0107879
-0.000425364 0 0.00639053 -0.00871127 0 -0.00637208 -0.00872575 0 0.0107879 0.000963535
0 -0.00778421 -0.00761653 0 0.00781802 -0.00758997 0 -0.0107333 -0.00196233 0
0.0107879 -0.00191968 0 -0.0107333 0.00221206 0 -0.005 -0.00980352 0 0.005
-0.00980352 0 0.0107879 0.00225445 0 -0.00923755 0.00626897 0 -0.00347589 -0.0106227
0 0.00347589 -0.0106227 0 0.00928347 0.00630439 0 -0.0107333 0.00341198 0
-0.00178183 -0.0111362 0 0.00178183 -0.0111362 0 -0.00923755 -0.00647493 0 0.00928347
-0.00643887 0 -3.26899e-19 -0.0113111 0 -0.0107333 -0.00357015 0 0.0107879 0.00345431
0 0.0107879 -0.00352741 0 -0.0107333 0.00452726 0 0.0107879 0.00456952 0
-0.0107333 -0.00530001 0 0.0107879 -0.00525717 0 -0.0107333 0.00556386 0 0.0107879
0.00560606 0 -0.000743369 0.0122055 0 0.000743369 0.0122055 0 -0.00778421 -0.00948375
0 0.00781802 -0.00945713 0 -0.0122727 0.000733061 0 -0.0122727 -0.000758799 0
0.0123323 -0.000712262 0 0.0123323 0.0007795 0 0.00639053 -0.0105814 0 -0.00637208
-0.0105959 0 -0.00923755 -0.00833916 0 -0.0122727 0.00211968 0 0.00928347 -0.00830301
0 -0.0122727 -0.00236389 0 0.0123323 0.00216603 0 0.0123323 -0.00231725 0
-0.0107333 0.00652734 0 0.0107879 0.00656947 0 -0.005 -0.0116765 0 0.005
-0.0116765 0 -0.0122727 0.00340848 0 0.0123323 0.00345474 0 -0.000741126 0.0128136
0 0.000741126 0.0128136 0 -0.0107333 -0.00716117 0 0.0107879 -0.00711821 0
-0.00346908 -0.0124565 0 0.00346908 -0.0124565 0 -0.0122727 -0.00409081 0 0.0123323
-0.00404405 0 -0.0107333 0.00742284 0 -0.00177633 -0.0129455 0 0.00177633 -0.0129455
0 -0.0122727 0.00460636 0 -3.11279e-19 -0.013112 0 0.0107879 0.00746492 0
-0.002 0.013 0 0.002 0.013 0 0.0123323 0.00465255 0 -0.0007387
0.0134712 0 0.0007387 0.0134712 0 -0.0122727 0.00571974 0 0.0123323 0.00576585
0 -0.0122727 -0.00594879 0 0.0123323 -0.00590191 0 -0.002 0.0135849 0
0.002 0.0135849 0 -0.0138571 0.000479853 0 -0.00923755 -0.0103449 0 0.00928347
-0.0103086 0 0.00781802 -0.011466 0 -0.00778421 -0.0114927 0 -0.0138571 -0.00112242
0 0.0139177 0.000527252 0 0.0139177 -0.00107491 0 -0.0138571 0.0019691 0
-0.0122727 0.00675458 0 0.0139177 0.00201639 0 0.0123323 0.00680062 0 -0.0107333
-0.00916358 0 0.00639053 -0.0125934 0 0.0107879 -0.0091205 0 -0.00637208 -0.012608
0 -0.0138571 -0.0028463 0 0.0139177 -0.00279868 0 -0.000736077 0.0141824 0
0.000736077 0.0141824 0 -0.00319452 0.0138829 0 0.00320133 0.0138879 0 -0.0138571
0.00335328 0 0.0139177 0.00340049 0 -0.002 0.0142174 0 0.002 0.0142174
0 -0.0122727 0.00771641 0 0.0123323 0.00776239 0 -0.005 -0.0136916 0
0.005 -0.0136916 0 -0.0138571 0.00463982 0 -0.0122727 -0.0079478 0 -0.0138571
-0.00470103 0 0.0123323 -0.00790078 0 0.0139177 -0.00465328 0 0.0139177 0.00468694
0 -0.00319452 0.0144678 0 0.00320133 0.0144728 0 -0.00346175 -0.0144295 0
0.00346175 -0.0144295 0 -0.00073324 0.0149515 0 0.00073324 0.0149515 0 -0.0122727
0.00861039 0 -0.00177041 -0.0148921 0 0.00177041 -0.0148921 0 -0.002 0.0149014
0 0.002 0.0149014 0 -0.0138571 0.0058356 0 -2.94473e-19 -0.0150496 0
0.0123323 0.00865631 0 0.0139177 0.00588264 0 -0.0138571 -0.00669653 0 0.0139177
-0.00664864 0 -0.00319452 0.0151003 0 0.00320133 0.0151053 0 -0.0154877 0.000155282
0 -0.0138571 0.00694702 0 -0.00451419 0.0148583 0 0.0045263 0.0148673 0
0.00928347 -0.0124665 0 -0.00923755 -0.0125028 0 0.0155453 0.000200444 0 -0.0154877
-0.00156548 0 0.0139177 0.00699399 0 -0.0154877 0.00175466 0 -0.0107333 -0.011318
0 0.0107879 -0.0112748 0 0.0155453 -0.00152021 0 0.0155453 0.00179972 0
0.00781802 -0.0136273 0 -0.00778421 -0.0136541 0 -0.002 0.0156411 0 0.002
0.0156411 0 -0.000730172 0.0157833 0 0.000730172 0.0157833 0 -0.0154877 0.0032412
0 -0.0154877 -0.00341685 0 0.0155453 0.00328617 0 -0.0122727 -0.0100985 0
0.0155453 -0.00337146 0 0.0123323 -0.0100514 0 -0.0138571 0.00798004 0 0.0139177
0.00802694 0 0.00639053 -0.0147581 0 -0.00637208 -0.0147727 0 -0.00451419 0.0154432
0 0.0045263 0.0154521 0 -0.00319452 0.0157843 0 0.00320133 0.0157893 0
-0.0154877 0.00462288 0 0.0155453 0.00466776 0 -0.0154877 -0.00540874 0 -0.0138571
-0.00884348 0 0.0155453 -0.00536322 0 0.0139177 -0.00879545 0 -0.0138571 0.00894019
0 -0.002 0.0164411 0 0.002 0.0164411 0 0.0139177 0.00898702 0
-0.0154877 0.00590709 0 -0.005 -0.0158596 0 0.005 -0.0158596 0 0.0155453
0.00595189 0 -0.00451419 0.0160757 0 -0.000726854 0.0166828 0 0.000726854 0.0166828
0 0.0045263 0.0160846 0 -0.00319452 0.016524 0 0.00320133 0.016529 0
-0.00345386 -0.0165523 0 0.00345386 -0.0165523 0 -0.0138571 0.0098326 0 -0.00597213
0.0159359 0 0.00598764 0.0159474 0 -0.0154877 0.00710071 0 0.0139177 0.00987937
0 -0.00176404 -0.0169864 0 0.00176404 -0.0169864 0 0.0155453 0.00714543 0
-2.76391e-19 -0.0171343 0 -0.0171658 -0.000247278 0 0.0172162 -0.000207752 0 -0.0171658
0.00147028 0 -0.0154877 -0.0075518 0 0.0155453 -0.00750615 0 0.0172162 0.00150971
0 -0.0171658 -0.00209519 0 0.0172162 -0.00205556 0 0.0107879 -0.0135925 0
-0.0107333 -0.0136359 0 -0.00451419 0.0167597 0 0.0045263 0.0167686 0 -0.002
0.0173062 0 0.002 0.0173062 0 -0.0171658 0.00306667 0 -0.0122727 -0.0124125
0 0.00928347 -0.0147881 0 0.0123323 -0.0123652 0 -0.00923755 -0.0148246 0
0.0172162 0.00310601 0 -0.0154877 0.00821012 0 -0.00597213 0.0165208 0 0.00598764
0.0165323 0 0.0155453 0.00825477 0 -0.00319452 0.017324 0 0.00320133 0.017329
0 -0.0171658 -0.00408336 0 -0.000723266 0.0176555 0 0.000723266 0.0176555 0
0.0172162 -0.00404362 0 -0.0171658 0.00455044 0 0.00781802 -0.0159527 0 -0.00778421
-0.0159796 0 -0.0138571 -0.0111534 0 0.0139177 -0.0111052 0 0.0172162 0.0045897
0 -0.0154877 0.00924127 0 -0.00451419 0.0174994 0 0.0045263 0.0175084 0
0.0155453 0.00928585 0 -0.0171658 0.00592954 0 -0.00597213 0.0171533 0 0.00598764
0.0171648 0 0.0172162 0.00596872 0 0.00639053 -0.0170872 0 -0.00637208 -0.0171018
0 -0.0171658 -0.00622243 0 0.0172162 -0.00618257 0 -0.002 0.0182418 0
0.002 0.0182418 0 -0.0154877 -0.00985753 0 0.0155453 -0.00981172 0 -0.00319452
0.0181891 0 0.00320133 0.0181941 0 -0.0154877 0.0101997 0 0.0155453 0.0102442
0 -0.0171658 0.00721136 0 0.0172162 0.00725047 0 -0.000719385 0.0187075 0
0.000719385 0.0187075 0 -0.00758282 0.0171264 0 0.00759938 0.0171387 0 -0.00597213
0.0178373 0 0.00598764 0.0178488 0 -0.00451419 0.0182994 0 0.0045263 0.0183083
0 -0.005 -0.0181922 0 0.005 -0.0181922 0 -0.018893 -0.00073496 0
-0.018893 0.0011094 0 0.0189314 -0.000704684 0 0.0189314 0.0011396 0 -0.0154877
0.0110905 0 -0.018893 -0.0027193 0 -0.018893 0.00282365 0 -0.0171658 0.00840275
0 0.0189314 -0.00268894 0 0.0155453 0.0111349 0 0.0189314 0.00285377 0
-0.00344538 -0.0188361 0 0.00344538 -0.0188361 0 -0.0171658 -0.00852385 0 0.0172162
0.00844179 0 0.0172162 -0.00848386 0 -0.00758282 0.0177113 0 0.00759938 0.0177235
0 -0.0122727 -0.0149021 0 0.0123323 -0.0148546 0 -0.00175719 -0.0192397 0
[...]
CELL_DATA 15677
FIELD attributes 1
U 3 15677 float
-0.304861 10.2652 0 0.190467 10.9192 0 -0.101144 9.4469 0 0.0315442 10.9901
0 0.118828 10.7325 0 -0.011932 8.75887 0 0.0455113 11.0075 0
0.0144526 10.9817 0 0.0576986 10.4724 0 0.011527 8.23007 0 0.0466721
11.0123 0 0.0433517 11.0313 0 0.0260634 10.9291 0 0.0318969 10.1915
0 0.0113226 7.85698 0 0.0439832 11.0135 0 0.0423468 11.0441 0
0.0427638 11.0214 0 0.0332133 10.8611 0 0.021365 9.90389 0 0.00644178
7.61284 0 0.0413424 11.0136 0 0.0403729 11.0463 0 0.0401454 11.0453
0 0.0398541 11.0057 0 0.0328101 10.7702 0 0.0159529 9.63864 0
0.00250779 7.45966 0 0.0385938 11.0131 0 0.0388977 11.0454 0 0.0392978
11.0538 0 0.0384438 11.0453 0 0.0358246 10.9837 0 0.0288577 10.6583
0 0.012168 9.41344 0 0.000568281 7.36306 0 0.0355594 11.0123 0
0.037257 11.0436 0 0.0386015 11.0565 0 0.0383693 11.0595 0 0.0360106
11.0432 0 0.0318372 10.9541 0 0.0240947 10.5338 0 0.00903039 9.23831
0 2.2969e-05 7.30083 0 0.032268 11.0113 0 0.0353219 11.0412 0
0.0374815 11.0562 0 0.0377836 11.0648 0 0.0360604 11.0644 0 0.0329021
11.0377 0 0.0284383 10.9187 0 0.0195151 10.3991 0 0.00647299 9.10736
0 -0.000230543 7.25808 0 0.0287809 11.0101 0 0.0331609 11.0383 0
0.0360497 11.0545 0 0.036808 11.066 0 0.0354798 11.0728 0 0.0329363
11.0676 0 0.0298357 11.0303 0 0.0254541 10.8772 0 0.0154973 10.2702
0 0.00442127 9.01229 0 -0.000461426 7.23348 0 0.0251712 11.0089 0
0.030797 11.035 0 0.0343535 11.0519 0 0.0355552 11.0652 0 0.0345449
11.0757 0 0.0323679 11.0797 0 0.0297859 11.0702 0 0.0268767 11.0227
0 0.0222641 10.8317 0 0.01188 10.1598 0 0.00268213 8.94614 0
-0.000666106 7.22176 0 0.0214693 11.0077 0 0.0282403 11.0313 0 0.0323843
11.0486 0 0.0340326 11.063 0 0.0333173 11.0757 0 0.0314044 11.0846
0 0.0291177 11.0867 0 0.0266756 11.0739 0 0.0236138 11.0158 0
0.0185795 10.7856 0 0.00848763 10.0707 0 0.00111676 8.90386 0 -0.00108215
7.22361 0 0.0177411 11.0065 0 0.0255628 11.0275 0 0.0301294 11.0447
0 0.0322234 11.06 0 0.0318004 11.0741 0 0.0301001 11.0857 0
0.0279758 11.0938 0 0.0257546 11.0953 0 0.0232218 11.0799 0 0.0199466
11.0103 0 0.0144669 10.7417 0 0.00518346 10.0052 0 -0.000515236 8.88264
0 -0.00170066 7.23874 0 0.0145335 11.0053 0 0.0228282 11.0235 0
0.0276073 11.0403 0 0.0301093 11.0561 0 0.0299852 11.0714 0 0.0284707
11.0848 0 0.0264311 11.0962 0 0.0242625 11.1048 0 0.0219017 11.1064
0 0.0192253 11.0888 0 0.0157714 11.0073 0 0.0099979 10.7055 0
0.0017203 9.96239 0 -0.00218769 8.88047 0 -0.00236463 7.26749 0 0.0119383
11.0043 0 0.0202253 11.0198 0 0.0248669 11.0356 0 0.0276761 11.0516
0 0.027855 11.0676 0 0.0265112 11.0824 0 0.0245088 11.096 0
0.0222917 11.1085 0 0.0199011 11.1184 0 0.0173359 11.121 0 0.0145028
11.1016 0 0.010886 11.0086 0 0.00511573 10.6801 0 -0.00185978 9.94136
0 -0.00407255 8.8966 0 -0.00318694 7.30998 0 0.00977905 11.0035 0
0.0179061 11.0166 0 0.0222009 11.031 0 0.0249295 11.0464 0 0.0253897
11.063 0 0.0242045 11.0789 0 0.0222062 11.094 0 0.019871 11.109
0 0.0173275 11.1235 0 0.0146493 11.1356 0 0.0118691 11.1399 0
0.00887081 11.1193 0 0.00520068 11.016 0 -0.000237024 10.668 0 -0.00571472
9.94105 0 -0.00615383 8.92999 0 -0.004098 7.36641 0 0.00806344 11.0027
0 0.0158198 11.0138 0 0.0197911 11.0271 0 0.0221855 11.0414 0
0.0225778 11.0576 0 0.0215294 11.0743 0 0.0195076 11.0907 0 0.016998
11.1074 0 0.0142085 11.1246 0 0.0112715 11.142 0 0.00829413 11.1571
0 0.00530139 11.1639 0 0.00221961 11.143 0 -0.00131609 11.0311 0
-0.00608689 10.6704 0 -0.00988827 9.96051 0 -0.00844283 8.98056 0 -0.005088
7.43653 0 0.00667109 11.0022 0 0.0138898 11.0114 0 0.0175697 11.0236
0 0.0196506 11.0369 0 0.019728 11.0521 0 0.0184702 11.0687 0
0.0163928 11.0861 0 0.0136581 11.1042 0 0.010539 11.1233 0 0.00722637
11.1438 0 0.00387935 11.1648 0 0.000608293 11.1839 0 -0.0025206 11.1939
0 -0.00552866 11.1736 0 -0.00868476 11.0555 0 -0.0124722 10.6886 0
-0.0144126 9.99878 0 -0.0109233 9.04751 0 -0.00614564 7.52012 0 0.00551582
11.0017 0 0.0121357 11.0095 0 0.0155047 11.0205 0 0.0172641 11.0328
0 0.0170655 11.0471 0 0.0153579 11.0629 0 0.0128483 11.0804 0
0.00983486 11.0996 0 0.00630379 11.1202 0 0.00250416 11.1427 0 -0.0013542
11.1672 0 -0.00510425 11.1928 0 -0.00859499 11.2167 0 -0.0117115 11.2309
0 -0.0144273 11.2123 0 -0.0169301 11.0906 0 -0.0194057 10.7229 0
-0.0192834 10.0552 0 -0.0135885 9.13035 0 -0.00725036 7.61652 0 0.00456597
11.0014 0 0.0105699 11.008 0 0.013603 11.0179 0 0.0150285 11.0291
0 0.0145406 11.0424 0 0.0124454 11.0574 0 0.00925558 11.0742 0
0.00552073 11.0936 0 0.00148909 11.1154 0 -0.00291389 11.1395 0 -0.00742409
11.1663 0 -0.0118207 11.1957 0 -0.0158971 11.2267 0 -0.0194553 11.2563
0 -0.0223475 11.2757 0 -0.0245137 11.2599 0 -0.0260505 11.1373 0
-0.0268714 10.7735 0 -0.0244818 10.1289 0 -0.0164136 9.22826 0 -0.00840256
7.72501 0 0.00381037 11.0012 0 0.0091562 11.0067 0 0.0118607 11.0156
0 0.0129512 11.0259 0 0.0121709 11.0381 0 0.00968681 11.0521 0
0.00590639 11.0681 0 0.0011818 11.0869 0 -0.00390369 11.1089 0 -0.00904015
11.1343 0 -0.0143556 11.1628 0 -0.0195706 11.1948 0 -0.0244262 11.2301
0 -0.0286703 11.2675 0 -0.0320759 11.3035 0 -0.0344802 11.329 0
-0.0357876 11.3174 0 -0.0360144 11.1963 0 -0.0348421 10.8402 0 -0.0299847
10.2189 0 -0.019383 9.34051 0 -0.00958381 7.84487 0 0.00322895 11.001
0 0.00794653 11.0057 0 0.010271 11.0137 0 0.0110344 11.0231 0
0.00996906 11.0342 0 0.00710886 11.0471 0 0.00275086 11.0622 0 -0.00283519
11.0801 0 -0.00928684 11.1015 0 -0.0158631 11.1272 0 -0.0221616 11.1571
0 -0.0283894 11.1909 0 -0.0342292 11.229 0 -0.0393774 11.2711 0
-0.0435544 11.3157 0 -0.0465255 11.3591 0 -0.0481163 11.3914 0 -0.048211
11.3852 0 -0.0467597 11.2679 0 -0.0432734 10.9225 0 -0.0357532 10.3244
0 -0.0224554 9.466 0 -0.010762 7.97488 0 0.00277669 11.0008 0
0.00695584 11.005 0 0.00888095 11.0121 0 0.0092807 11.0205 0 0.00794341
11.0306 0 0.00473064 11.0425 0 -0.000176068 11.0565 0 -0.00659143 11.0734
0 -0.0142371 11.0939 0 -0.0226333 11.1188 0 -0.0308197 11.149 0
-0.0382927 11.1844 0 -0.0453555 11.2246 0 -0.0516467 11.2698 0 -0.0568356
11.3194 0 -0.0606382 11.372 0 -0.0628197 11.4235 0 -0.0632165 11.4635
0 -0.0617106 11.4636 0 -0.0582034 11.3521 0 -0.0520993 11.0196 0
-0.0417157 10.4438 0 -0.0255809 9.60343 0 -0.0119234 8.11376 0 0.00241849
11.0007 0 0.00613972 11.0044 0 0.00772167 11.0108 0 0.00775366 11.0184
0 0.00609966 11.0274 0 0.00256589 11.0382 0 -0.00284766 11.0511 0
-0.0100438 11.0667 0 -0.0188323 11.0861 0 -0.0288247 11.11 0 -0.0393739
11.1394 0 -0.0492475 11.1752 0 -0.057827 11.2171 0 -0.0655472 11.2646
0 -0.0720201 11.3177 0 -0.0769127 11.3758 0 -0.0799497 11.4371 0
-0.0809233 11.4973 0 -0.0796961 11.5454 0 -0.0761698 11.5528 0 -0.070225
11.4488 0 -0.0612121 11.1305 0 -0.0478106 10.5761 0 -0.0287208 9.75146
0 -0.0130564 8.26018 0 0.00213035 11.0006 0 0.0054657 11.0039 0
0.00676274 11.0098 0 0.00649221 11.0166 0 0.00451076 11.0246 0 0.000623857
11.0343 0 -0.00524408 11.0459 0 -0.0131572 11.0603 0 -0.0230192 11.0783
0 -0.0345377 11.1009 0 -0.0471649 11.1292 0 -0.0600404 11.164 0
-0.0716003 11.2064 0 -0.081111 11.2559 0 -0.0892033 11.3117 0 -0.0954897
11.3736 0 -0.099653 11.4408 0 -0.101456 11.5113 0 -0.100739 11.5806
0 -0.0974218 11.6373 0 -0.0914563 11.6527 0 -0.0826994 11.5573 0
-0.0705017 11.254 0 -0.0539656 10.7198 0 -0.0318388 9.9086 0 -0.0141405
8.41273 0 0.00189542 11.0006 0 0.00490456 11.0036 0 0.00596334 11.009
0 0.00545615 11.0151 0 0.00321579 11.0223 0 -0.00101685 11.0307 0
-0.00735128 11.041 0 -0.0159048 11.054 0 -0.0267529 11.0705 0 -0.0397066
11.0916 0 -0.0543231 11.1184 0 -0.0698451 11.1519 0 -0.0851495 11.1933
0 -0.0982875 11.2434 0 -0.108434 11.3015 0 -0.116498 11.3664 0
-0.122118 11.4379 0 -0.125025 11.5148 0 -0.125052 11.595 0 -0.122122
11.6736 0 -0.11623 11.7391 0 -0.107387 11.7627 0 -0.0954848 11.6768
0 -0.0798789 11.3887 0 -0.0601006 10.8733 0 -0.0348958 10.0733 0
-0.0151643 8.56995 0 0.00170165 11.0005 0 0.00443455 11.0033 0 0.0052934
11.0083 0 0.0046013 11.0139 0 0.00216831 11.0203 0 -0.00232209 11.0277
0 -0.00908318 11.0366 0 -0.0182668 11.048 0 -0.0299977 11.0629 0
-0.044274 11.0822 0 -0.0607663 11.1071 0 -0.0788288 11.1391 0 -0.097442
11.179 0 -0.115175 11.2279 0 -0.129656 11.2868 0 -0.14001 11.3546
0 -0.147519 11.4295 0 -0.151886 11.511 0 -0.152928 11.598 0
-0.15058 11.6881 0 -0.144873 11.7761 0 -0.135907 11.8504 0 -0.123774
11.8824 0 -0.108416 11.8063 0 -0.0892297 11.5333 0 -0.06614 11.035
0 -0.0378586 10.244 0 -0.0161295 8.73043 0 0.00154023 11.0005 0
0.00403847 11.0031 0 0.00472887 11.0077 0 0.00389333 11.0129 0 0.0013197
11.0186 0 -0.00334815 11.0251 0 -0.0104132 11.0328 0 -0.0201466 11.0424
0 -0.0327265 11.0554 0 -0.0481931 11.0728 0 -0.0664217 11.0957 0
-0.0868891 11.1255 0 -0.108691 11.1636 0 -0.130494 11.211 0 -0.150529
11.2686 0 -0.165973 11.3374 0 -0.175967 11.4157 0 -0.182266 11.5012
0 -0.184684 11.5933 0 -0.183169 11.6906 0 -0.177799 11.7905 0
-0.168743 11.8878 0 -0.156213 11.9707 0 -0.140415 12.0109 0 -0.121338
11.9448 0 -0.0984419 11.6861 0 -0.0720205 11.2034 0 -0.0407065 10.4191
0 -0.0169533 8.89305 0 0.0014046 11.0004 0 0.00370276 11.0029 0
0.00425051 11.0073 0 0.00330467 11.012 0 0.000630901 11.0172 0 -0.00415219
11.0229 0 -0.0114136 11.0295 0 -0.0215286 11.0376 0 -0.0348282 11.0484
0 -0.0514271 11.0634 0 -0.0712282 11.0841 0 -0.0939334 11.1115 0
-0.118768 11.1472 0 -0.14451 11.1926 0 -0.169475 11.2486 0 -0.191542
11.3161 0 -0.207414 11.3957 0 -0.216313 11.4853 0 -0.220613 11.582
0 -0.220296 11.6849 0 -0.215484 11.7926 0 -0.206427 11.9021 0
-0.193453 12.0082 0 -0.176906 12.0993 0 -0.157105 12.1474 0 -0.134105
12.0908 0 -0.107415 11.8457 0 -0.0776984 11.3767 0 -0.0433712 10.5973
0 -0.0182181 9.05505 0 0.0012898 11.0004 0 0.00341664 11.0027 0
0.00384291 11.0069 0 0.00281321 11.0113 0 7.04809e-05 11.016 0 -0.00478026
11.021 0 -0.0121556 11.0266 0 -0.0225082 11.0334 0 -0.0363007 11.0422
0 -0.0538442 11.0547 0 -0.0751362 11.0725 0 -0.0998823 11.0972 0
-0.127556 11.1302 0 -0.157066 11.1729 0 -0.186827 11.2267 0 -0.214784
11.2925 0 -0.238429 11.3709 0 -0.254005 11.4623 0 -0.260931 11.5638
0 -0.262341 11.672 0 -0.258437 11.7858 0 -0.249556 11.9035 0
-0.236146 12.0223 0 -0.218707 12.1367 0 -0.197731 12.2353 0 -0.173646
12.2907 0 -0.146577 12.2431 0 -0.116075 12.0105 0 -0.0831022 11.5536
0 -0.0464731 10.7764 0 -0.0193893 9.24559 0 0.00119197 11.0004 0
0.00317153 11.0025 0 0.00349598 11.0065 0 0.00240106 11.0106 0 -0.000386692
11.015 0 -0.00526925 11.0194 0 -0.0126962 11.0241 0 -0.0231764 11.0297
0 -0.0372709 11.0368 0 -0.055459 11.0468 0 -0.0779859 11.0614 0
-0.10467 11.0828 0 -0.134953 11.1126 0 -0.168013 11.1521 0 -0.202392
11.203 0 -0.23611 11.2665 0 -0.266684 11.3433 0 -0.291269 11.4336
0 -0.305658 11.5375 0 -0.3096 11.6514 0 -0.307138 11.7712 0
-0.298748 11.8957 0 -0.28501 12.0232 0 -0.266599 12.1505 0 -0.244198
12.2725 0 -0.218436 12.3777 0 -0.189848 12.4397 0 -0.158641 12.4002
0 -0.124331 12.1791 0 -0.0886082 11.7321 0 -0.0491755 10.9764 0
-0.0196623 9.44104 0 0.00110804 11.0003 0 0.00296072 11.0024 0 0.00319642
11.0062 0 0.00205383 11.0101 0 -0.000760721 11.0141 0 -0.00564859 11.018
0 -0.013081 11.022 0 -0.0236063 11.0265 0 -0.0378568 11.0321 0
-0.0564386 11.0399 0 -0.0798103 11.0515 0 -0.108098 11.0689 0 -0.14087
11.0947 0 -0.177219 11.1307 0 -0.215982 11.178 0 -0.255282 11.2383
0 -0.292684 11.3127 0 -0.32531 11.4016 0 -0.350002 11.5046 0
-0.362149 11.6217 0 -0.361976 11.7482 0 -0.35459 11.8795 0 -0.340788
12.0144 0 -0.321426 12.1508 0 -0.297414 12.286 0 -0.269613 12.4146
0 -0.238779 12.5256 0 -0.205554 12.5931 0 -0.170174 12.561 0
-0.132381 12.3496 0 -0.0937975 11.9314 0 -0.0508862 11.1953 0 -0.0200087
9.63175 0 0.00103549 11.0003 0 0.00277877 11.0023 0 0.00293779 11.006
0 0.00176183 11.0096 0 -0.00106771 11.0133 0 -0.00594167 11.0168 0
-0.0133463 11.0201 0 -0.023856 11.0236 0 -0.038153 11.0279 0 -0.0569366
11.0338 0 -0.0808279 11.0426 0 -0.11022 11.0564 0 -0.145061 11.0774
0 -0.18457 11.1086 0 -0.227429 11.1519 0 -0.272068 11.2084 0
-0.316133 11.2794 0 -0.356744 11.3659 0 -0.390647 11.4678 0 -0.414416
11.5844 0 -0.42311 11.7149 0 -0.417595 11.854 0 -0.404199 11.9966
0 -0.384074 12.1411 0 -0.358367 12.2858 0 -0.328219 12.4279 0
-0.294657 12.5621 0 -0.258553 12.6777 0 -0.220604 12.7499 0 -0.181241
12.7237 0 -0.140393 12.5404 0 -0.0983524 12.1505 0 -0.0527542 11.4101
0 -0.020378 9.81567 0 0.000972776 11.0003 0 0.00262096 11.0022 0
0.00271468 11.0058 0 0.00151363 11.0092 0 -0.00132033 11.0126 0 -0.00616703
11.0157 0 -0.0135204 11.0185 0 -0.0239711 11.0212 0 -0.0382344 11.0242
0 -0.0570756 11.0284 0 -0.0812368 11.0348 0 -0.111318 11.0452 0
-0.147597 11.0617 0 -0.189752 11.0872 0 -0.236582 11.125 0 -0.286258
11.177 0 -0.336749 11.2439 0 -0.385214 11.3269 0 -0.42833 11.4267
0 -0.462506 11.5425 0 -0.484136 11.6731 0 -0.488038 11.8173 0
-0.475902 11.9688 0 -0.455409 12.1219 0 -0.428093 12.2753 0 -0.395389
12.4273 0 -0.358653 12.5751 0 -0.319063 12.7138 0 -0.277554 12.833
0 -0.234952 12.9084 0 -0.1925 12.906 0 -0.147921 12.7507 0
-0.102672 12.3661 0 -0.0545303 11.6181 0 -0.0206721 9.99146 0 0.0024828
11.0022 0 0.000897746 11.0003 0 0.00252011 11.0056 0 0.00130212 11.0088
0 -0.00152881 11.012 0 -0.00633934 11.0148 0 -0.0136257 11.0171 0
-0.0239873 11.019 0 -0.0381596 11.021 0 -0.0569527 11.0237 0 -0.0811958
11.0279 0 -0.111645 11.0352 0 -0.148836 11.0476 0 -0.192854 11.0677
0 -0.243042 11.0987 0 -0.297655 11.1444 0 -0.354266 11.2063 0
-0.410375 11.2851 0 -0.462631 11.3815 0 -0.507297 11.4954 0 -0.540524
11.6259 0 -0.558635 11.7709 0 -0.55632 11.9286 0 -0.536263 12.0919
0 -0.507625 12.2549 0 -0.47232 12.4161 0 -0.432057 12.5742 0
-0.388383 12.7266 0 -0.342574 12.8686 0 -0.295648 12.9901 0 -0.249753
13.0861 0 -0.203421 13.107 0 -0.154713 12.9579 0 -0.106535 12.5759
0 -0.0560161 11.8179 0 -0.0208728 10.1587 0 0.00234754 11.0054 0
0.0023212 11.0021 0 0.000807723 11.0003 0 0.00112005 11.0085 0 -0.0017013
11.0115 0 -0.00646985 11.014 0 -0.0136796 11.0158 0 -0.0239325 11.0171
0 -0.0379743 11.0182 0 -0.0566437 11.0195 0 -0.0808305 11.0218 0
-0.111405 11.0264 0 -0.149101 11.0351 0 -0.194325 11.0501 0 -0.246912
11.0747 0 -0.305748 11.1124 0 -0.368433 11.1672 0 -0.431895 11.2407
0 -0.493129 11.3326 0 -0.548297 11.4435 0 -0.593313 11.5727 0
-0.624169 11.7183 0 -0.637255 11.8777 0 -0.627241 12.0485 0 -0.59799
12.223 0 -0.56023 12.3947 0 -0.516237 12.5627 0 -0.467964 12.7256
0 -0.417095 12.8814 0 -0.364988 13.0253 0 -0.314462 13.1662 0
-0.264387 13.2821 0 -0.213166 13.3054 0 -0.160715 13.16 0 -0.109787
12.7781 0 -0.0572032 12.0086 0 -0.0209755 10.3169 0 0.000957866 11.0083
0 0.00215832 11.0052 0 0.00211913 11.002 0 0.000721143 11.0002 4.22353e-19
-0.00184601 11.011 0 -0.00656733 11.0132 0 -0.0136953 11.0147 0 -0.0238279
11.0155 0 -0.0377135 11.0157 0 -0.0562073 11.0158 0 -0.0802387 11.0164
0 -0.110759 11.0186 0 -0.14865 11.0239 0 -0.194568 11.0344 0
-0.248742 11.0529 0 -0.310644 11.083 0 -0.378597 11.1287 0 -0.449455
11.1942 0 -0.519418 11.2807 0 -0.585003 11.3872 0 -0.64193 11.5137
0 -0.685858 11.6588 0 -0.712756 11.8198 0 -0.719216 11.9933 0
-0.700024 12.1767 0 -0.660368 12.3612 0 -0.61261 12.5405 0 -0.559352
12.7139 0 -0.502728 12.8805 0 -0.44452 13.0382 0 -0.388412 13.2011
0 -0.333313 13.3605 0 -0.277416 13.4755 0 -0.221776 13.4991 0
-0.165825 13.3552 0 -0.112454 12.9717 0 -0.0581111 12.1897 0 -0.0209837
10.4658 0 -0.00197767 11.0106 0 0.000797807 11.0079 0 0.00193369 11.0049
1.84906e-18 0.00192338 11.0018 -1.33727e-18 0.000637768 11.0002 -8.57166e-19 -0.00664055 11.0126 0
-0.0136825 11.0138 0 -0.0236894 11.014 0 -0.0374042 11.0135 0 -0.0556883
11.0126 0 -0.0794958 11.0117 0 -0.109833 11.0117 0 -0.147689 11.014
0 -0.19391 11.0204 0 -0.249034 11.0334 0 -0.313011 11.0563 0
-0.384852 11.0931 0 -0.462224 11.1482 0 -0.541097 11.226 0 -0.616921
11.327 0 -0.685783 11.4495 0 -0.743048 11.5925 0 -0.784243 11.7538
0 -0.80546 11.9302 0 -0.803654 12.1174 0 -0.773844 12.3123 0
-0.72268 12.5058 0 -0.664181 12.6913 0 -0.601205 12.8689 0 -0.536016
13.0376 0 -0.473289 13.2142 0 -0.412095 13.3952 0 -0.350141 13.5523
0 -0.288918 13.6646 0 -0.229167 13.6864 0 -0.17007 13.5424 0
-0.114584 13.1562 0 -0.058768 12.3609 0 -0.0209099 10.6054 0 -0.00671137
11.0121 0 -0.00207008 11.0101 -3.7422e-18 0.00061694 11.0075 -1.94693e-18 0.00171478 11.0046
9.38726e-19 0.00173093 11.0017 -9.04298e-19 0.000557726 11.0002 0 -0.0136503 11.0129 0
-0.023528 11.0127 0 -0.0370659 11.0116 0 -0.0551212 11.0097 0 -0.0786597
11.0075 0 -0.108724 11.0056 0 -0.146378 11.0052 0 -0.192608 11.0079
0 -0.248193 11.016 0 -0.313462 11.0323 0 -0.387997 11.0607 0
-0.470259 11.1055 0 -0.557111 11.1717 0 -0.643551 11.2634 0 -0.724281
11.3804 0 -0.795049 11.5199 0 -0.850977 11.6801 0 -0.887613 11.858
0 -0.901341 12.0494 0 -0.889637 12.2495 0 -0.847859 12.4549 0
-0.784226 12.6558 0 -0.714392 12.8462 0 -0.641387 13.0262 0 -0.571052
13.2141 0 -0.502571 13.4088 0 -0.433315 13.587 0 -0.365014 13.7399
0 -0.298842 13.8477 0 -0.235366 13.8663 0 -0.173515 13.7212 0
-0.116225 13.3312 0 -0.0592055 12.5221 0 -0.0207688 10.7358 0 -0.0136312
11.0122 0 -0.00668865 11.0114 7.87596e-18 -0.00213642 11.0095 0 0.000443609 11.007
1.97521e-18 0.00150347 11.0044 6.27937e-22 0.00154358 11.0016 0 0.000481049 11.0002 0
-0.0233535 11.0116 0 -0.0367115 11.0099 0 -0.0545303 11.0072 0 -0.0777741
11.0037 0 -0.107505 11.0002 0 -0.14484 10.9974 0 -0.190866 10.9968
0 -0.246542 11.0004 0 -0.312497 11.0108 0 -0.388773 11.0315 0
-0.474501 11.0666 0 -0.567449 11.121 0 -0.663568 11.1998 0 -0.75681
11.307 0 -0.841165 11.4414 0 -0.912175 11.5989 0 -0.96487 11.7769
0 -0.99499 11.9712 0 -0.999385 12.1771 0 -0.9762 12.389 0
-0.921237 12.6034 0 -0.844345 12.8103 0 -0.762747 13.0039 0 -0.68383
13.2035 0 -0.606894 13.4096 0 -0.528915 13.6012 0 -0.452104 13.7746
0 -0.377912 13.9217 0 -0.307221 14.0238 0 -0.240457 14.0383 0
-0.17623 13.8909 0 -0.117431 13.4963 0 -0.0594553 12.6733 0 -0.0205736
10.8572 0 -0.0232133 11.0106 0 -0.0134411 11.0113 2.15138e-22 -0.00655863 11.0106
0 -0.00219935 11.0089 -2.07828e-18 0.00027885 11.0066 4.89947e-22 0.00129975 11.0041 0
0.00136086 11.0015 0 0.000407704 11.0002 0 -0.0363513 11.0084 0 -0.0539311
11.005 0 -0.0768703 11.0005 0 -0.106234 10.9954 0 -0.143171 10.9905
0 -0.18884 10.987 0 -0.244334 10.9865 0 -0.310513 10.9916 0
-0.387786 11.0052 0 -0.475835 11.0314 0 -0.573202 11.0746 0 -0.676846
11.1402 0 -0.781712 11.2333 0 -0.880649 11.3577 0 -0.967019 11.5108
0 -1.03634 11.6871 0 -1.08372 11.8829 0 -1.10529 12.0933 0
-1.09853 12.3127 0 -1.06239 12.5352 0 -0.993184 12.757 0 -0.902427
12.9681 0 -0.813994 13.1819 0 -0.727432 13.4001 0 -0.639277 13.6031
0 -0.552304 13.7896 0 -0.468458 13.9566 0 -0.388879 14.0967 0
-0.314159 14.1922 0 -0.244537 14.2018 0 -0.178291 14.0514 0 -0.118256
13.6517 0 -0.0595451 12.8147 0 -0.0203357 10.9699 0 -0.0360537 11.0071
0 -0.022794 11.0095 -4.35535e-18 -0.0130187 11.0102 0 -0.00643128 11.0098 0
-0.00224887 11.0084 6.32189e-18 0.000122688 11.0062 0 0.0011029 11.0039 0 0.00118257
11.0014 1.88443e-18 0.000337844 11.0002 0 -0.0533345 11.003 0 -0.0759666 10.9976
0 -0.10495 10.9912 0 -0.141441 10.9844 0 -0.18665 10.9782 0
-0.241767 10.9742 0 -0.307825 10.9745 0 -0.385523 10.9817 0 -0.474989
10.9996 0 -0.575411 11.0325 0 -0.684631 11.0855 0 -0.798693 11.164
0 -0.911447 11.2732 0 -1.01462 11.4163 0 -1.10108 11.5891 0
-1.16654 11.7847 0 -1.20641 11.9982 0 -1.21738 12.2239 0 -1.19772
12.4556 0 -1.14729 12.6871 0 -1.06296 12.9145 0 -0.964191 13.1468
0 -0.866831 13.3798 0 -0.766972 13.595 0 -0.668112 13.7928 0
-0.572741 13.9726 0 -0.482441 14.1319 0 -0.398037 14.2643 0 -0.319782
14.3526 0 -0.247709 14.3566 0 -0.179775 14.2026 0 -0.118751 13.7974
0 -0.0595015 12.9465 0 -0.0200663 11.0744 0 -0.052838 11.0012 0
-0.0353295 11.0056 0 -0.0219604 11.0081 -4.75947e-18 -0.0126104 11.0092 -4.59357e-18 -0.00628448
11.009 -8.8613e-18 -0.00228517 11.0078 0 -2.45144e-05 11.0058 -4.11639e-18 0.000913539 11.0036
-3.96495e-18 0.00100892 11.0013 1.90835e-18 0.000271272 11.0001 0 -0.0750751 10.995 0
-0.103674 10.9874 0 -0.139702 10.979 0 -0.184388 10.9705 0 -0.238991
10.9633 0 -0.304679 10.9592 0 -0.382371 10.9607 0 -0.472551 10.9711
0 -0.574942 10.9944 0 -0.688134 11.0356 0 -0.809154 11.1001 0