#           x             T
    -0.118947       349.804
    -0.118121       349.799
    -0.117174       349.795
    -0.116087        349.79
     -0.11484       349.787
    -0.113408       349.784
    -0.111764       349.782
    -0.109877       349.781
    -0.107712       349.779
    -0.105227       349.778
    -0.102374       349.777
   -0.0990995       349.777
   -0.0953416       349.778
   -0.0914285       349.783
   -0.0876191       349.795
   -0.0838095       349.821
        -0.08       349.878
   -0.0761904       349.997
   -0.0723809       350.244
   -0.0685715        350.75
   -0.0649271       351.722
    -0.061624       353.409
    -0.058655       356.074
   -0.0559862       359.873
   -0.0535874       364.736
   -0.0514313        370.36
   -0.0494932       376.269
   -0.0477512       381.897
   -0.0461853       386.747
   -0.0447779       390.542
   -0.0435128        393.28
   -0.0423757       395.133
   -0.0413536        396.31
   -0.0404349           397
     -0.03925       397.301
     -0.03775        397.05
     -0.03625       396.278
     -0.03475       395.267
     -0.03325       394.257
     -0.03175       393.363
     -0.03025       392.622
     -0.02875       392.037
     -0.02725       391.593
     -0.02575       391.272
   -0.0243994       391.059
   -0.0231362       390.918
    -0.021743       390.818
   -0.0202065       390.757
   -0.0189203       390.729
   -0.0180315       390.716
   -0.0166427       390.706
   -0.0145812       390.703
    -0.012414       390.706
   -0.0110231       390.708
   -0.0100402       390.709
  -0.00847254       390.709
  -0.00677747        390.71
  -0.00524316        390.71
  -0.00385435       390.713
  -0.00288618       390.718
  -0.00228892       390.722
  -0.00133333       390.731
            0       390.747
   0.00133333       390.772
     0.002289       390.794
   0.00288966       390.811
   0.00386381       390.842
   0.00525697       390.893
   0.00679351        390.96
    0.0084882       391.047
    0.0100473       391.139
    0.0110276       391.198
    0.0124188       391.283
    0.0145859       391.421
    0.0166548       391.556
    0.0180384       391.643
    0.0189282       391.698
    0.0202225       391.774
    0.0217568       391.866
    0.0231456       391.962
    0.0244027        392.07
      0.02575        392.22
      0.02725       392.448
      0.02875       392.781
      0.03025       393.257
      0.03175        393.91
      0.03325       394.758
      0.03475       395.756
      0.03625       396.694
      0.03775       397.174
      0.03925       396.951
    0.0404349       396.164
    0.0413536       395.083
    0.0423757       393.523
    0.0435128       391.265
    0.0447779       388.138
    0.0461853       384.049
    0.0477511       379.084
    0.0494932       373.558
    0.0514312       367.953
    0.0535874       362.793
    0.0559862       358.457
    0.0586549       355.144
     0.061624        352.86
    0.0649271       351.428
    0.0685714       350.605
    0.0723809       350.175
    0.0761904       349.965
         0.08       349.864
    0.0838095       349.815
     0.087619       349.793
    0.0914285       349.783
    0.0953419       349.779
    0.0991002       349.779
     0.102374       349.779
     0.105227        349.78
     0.107713       349.781
     0.109878       349.783
     0.111765       349.785
     0.113408       349.786
      0.11484       349.789
     0.116088       349.792
     0.117175       349.797
     0.118122       349.802
     0.118947       349.806
     0.119665        349.81
