# vtk DataFile Version 2.0
sampleSurface
ASCII
DATASET POLYDATA
POINTS 15978 float
-4.26165e-19 0.000133477 0 -4.18079e-19 -0.000798814 0 -4.33681e-19 0.001 0 -4.09379e-19 -0.00180187
0 -0.00181681 0.000361473 0 0.00181681 0.000361473 0 -0.00181396 -0.000575145 0
0.00181396 -0.000575145 0 -0.00181945 0.00123202 0 0.00181945 0.00123202 0 -0.00181089
-0.00158285 0 0.00181089 -0.00158285 0 -4.00018e-19 -0.00288105 0 -0.00180759 -0.00266704
0 0.00180759 -0.00266704 0 -0.00351565 8.15481e-05 0 0.00351565 8.15481e-05 0
-0.00351186 -0.000939823 0 0.00351186 -0.000939823 0 -0.00351918 0.00103087 0 0.00351918
0.00103087 0 -0.00352245 0.00191322 0 0.00352245 0.00191322 0 -3.89947e-19 -0.00404214
0 -0.00350777 -0.00203871 0 0.00350777 -0.00203871 0 -0.00180405 -0.00383352 0
0.00180405 -0.00383352 0 -0.00350338 -0.00322101 0 0.00350338 -0.00322101 0 -0.005
8.60602e-05 0 0.005 8.60602e-05 0 -0.005 -0.00103629 0 0.005 -0.00103629
0 -0.005 0.00112923 0 0.005 0.00112923 0 -3.79112e-19 -0.00529135 0
-0.00180023 -0.00508853 0 0.00180023 -0.00508853 0 -0.005 0.00209882 0 0.005
0.00209882 0 -0.005 -0.00224382 0 0.005 -0.00224382 0 -0.00349866 -0.00449304
0 0.00349866 -0.00449304 0 -0.005 0.003 0 0.005 0.003 0
-0.005 -0.003543 0 0.005 -0.003543 0 -0.00637208 2.82617e-05 0 0.00639053
4.25732e-05 0 -0.00637208 0.00114892 0 -0.00637208 -0.00117745 0 0.00639053 -0.00116311
0 0.00639053 0.00116321 0 -3.67455e-19 -0.00663538 0 -0.00179612 -0.00643879 0
0.00179612 -0.00643879 0 -0.00637208 0.00219052 0 0.00639053 0.00220479 0 -0.00349357
-0.00586162 0 0.00349357 -0.00586162 0 -0.00637208 -0.00247467 0 0.00639053 -0.00246031
0 -0.005 -0.00494079 0 0.005 -0.00494079 0 -0.00637208 0.00315864 0
0.00639053 0.00317289 0 -0.00637208 -0.00387036 0 0.00639053 -0.00385597 0 -0.00637208
0.00405846 0 0.00639053 0.00407269 0 -0.00778421 -7.99569e-05 0 0.00781802 -5.3679e-05
0 -0.00778421 0.00112388 0 0.00781802 0.00115011 0 -0.00778421 -0.00137517 0
0.00781802 -0.00134884 0 -3.54912e-19 -0.00808142 0 -0.0017917 -0.00789154 0 0.0017917
-0.00789154 0 -0.00778421 0.0022428 0 -0.0034881 -0.00733407 0 0.0034881 -0.00733407
0 0.00781802 0.00226899 0 -0.005 -0.00644467 0 0.005 -0.00644467 0
-0.00778421 -0.00276868 0 0.00781802 -0.0027423 0 -0.00637208 -0.00537197 0 0.00639053
-0.00535755 0 -0.00778421 0.00328278 0 0.00781802 0.00330893 0 -0.00778421 0.00424939
0 -0.00778421 -0.00426796 0 0.00781802 -0.00424152 0 0.00781802 0.00427551 0
-0.00923755 -0.000243565 0 0.00928347 -0.000207818 0 -0.00923755 0.00104957 0 -0.00778421
0.00514782 0 0.00928347 0.00108525 0 0.00781802 0.0051739 0 -0.00923755 -0.00163485
0 0.00928347 -0.00159903 0 -0.00637208 -0.00698755 0 0.00639053 -0.0069731 0
-0.005 -0.0080627 0 0.005 -0.0080627 0 -0.00923755 0.00225148 0 0.00928347
0.0022871 0 -0.00348222 -0.00891827 0 0.00348222 -0.00891827 0 -0.00178695 -0.00945455
0 0.00178695 -0.00945455 0 -3.41418e-19 -0.00963721 0 -0.00923755 -0.00313172 0
-0.00778421 -0.00588103 0 0.00781802 -0.00585453 0 0.00928347 -0.00309583 0 -0.00923755
0.0033686 0 0.00928347 0.00340416 0 -0.00923755 0.00440692 0 0.00928347 0.00444243
0 -0.00923755 -0.00474221 0 0.00928347 -0.00470623 0 -0.00923755 0.00537198 0
-0.0107333 -0.000467921 0 0.00928347 0.00540745 0 -0.0107333 0.000921062 0 0.0107879
-0.000425364 0 0.00639053 -0.00871127 0 -0.00637208 -0.00872575 0 0.0107879 0.000963535
0 -0.00778421 -0.00761653 0 0.00781802 -0.00758997 0 -0.0107333 -0.00196233 0
0.0107879 -0.00191968 0 -0.0107333 0.00221206 0 -0.005 -0.00980352 0 0.005
-0.00980352 0 0.0107879 0.00225445 0 -0.00923755 0.00626897 0 -0.00347589 -0.0106227
0 0.00347589 -0.0106227 0 0.00928347 0.00630439 0 -0.0107333 0.00341198 0
-0.00178183 -0.0111362 0 0.00178183 -0.0111362 0 -0.00923755 -0.00647493 0 0.00928347
-0.00643887 0 -3.26899e-19 -0.0113111 0 -0.0107333 -0.00357015 0 0.0107879 0.00345431
0 0.0107879 -0.00352741 0 -0.0107333 0.00452726 0 0.0107879 0.00456952 0
-0.0107333 -0.00530001 0 0.0107879 -0.00525717 0 -0.0107333 0.00556386 0 0.0107879
0.00560606 0 -0.000743369 0.0122055 0 0.000743369 0.0122055 0 -0.00778421 -0.00948375
0 0.00781802 -0.00945713 0 -0.0122727 0.000733061 0 -0.0122727 -0.000758799 0
0.0123323 -0.000712262 0 0.0123323 0.0007795 0 0.00639053 -0.0105814 0 -0.00637208
-0.0105959 0 -0.00923755 -0.00833916 0 -0.0122727 0.00211968 0 0.00928347 -0.00830301
0 -0.0122727 -0.00236389 0 0.0123323 0.00216603 0 0.0123323 -0.00231725 0
-0.0107333 0.00652734 0 0.0107879 0.00656947 0 -0.005 -0.0116765 0 0.005
-0.0116765 0 -0.0122727 0.00340848 0 0.0123323 0.00345474 0 -0.000741126 0.0128136
0 0.000741126 0.0128136 0 -0.0107333 -0.00716117 0 0.0107879 -0.00711821 0
-0.00346908 -0.0124565 0 0.00346908 -0.0124565 0 -0.0122727 -0.00409081 0 0.0123323
-0.00404405 0 -0.0107333 0.00742284 0 -0.00177633 -0.0129455 0 0.00177633 -0.0129455
0 -0.0122727 0.00460636 0 -3.11279e-19 -0.013112 0 0.0107879 0.00746492 0
-0.002 0.013 0 0.002 0.013 0 0.0123323 0.00465255 0 -0.0007387
0.0134712 0 0.0007387 0.0134712 0 -0.0122727 0.00571974 0 0.0123323 0.00576585
0 -0.0122727 -0.00594879 0 0.0123323 -0.00590191 0 -0.002 0.0135849 0
0.002 0.0135849 0 -0.0138571 0.000479853 0 -0.00923755 -0.0103449 0 0.00928347
-0.0103086 0 0.00781802 -0.011466 0 -0.00778421 -0.0114927 0 -0.0138571 -0.00112242
0 0.0139177 0.000527252 0 0.0139177 -0.00107491 0 -0.0138571 0.0019691 0
-0.0122727 0.00675458 0 0.0139177 0.00201639 0 0.0123323 0.00680062 0 -0.0107333
-0.00916358 0 0.00639053 -0.0125934 0 0.0107879 -0.0091205 0 -0.00637208 -0.012608
0 -0.0138571 -0.0028463 0 0.0139177 -0.00279868 0 -0.000736077 0.0141824 0
0.000736077 0.0141824 0 -0.00319452 0.0138829 0 0.00320133 0.0138879 0 -0.0138571
0.00335328 0 0.0139177 0.00340049 0 -0.002 0.0142174 0 0.002 0.0142174
0 -0.0122727 0.00771641 0 0.0123323 0.00776239 0 -0.005 -0.0136916 0
0.005 -0.0136916 0 -0.0138571 0.00463982 0 -0.0122727 -0.0079478 0 -0.0138571
-0.00470103 0 0.0123323 -0.00790078 0 0.0139177 -0.00465328 0 0.0139177 0.00468694
0 -0.00319452 0.0144678 0 0.00320133 0.0144728 0 -0.00346175 -0.0144295 0
0.00346175 -0.0144295 0 -0.00073324 0.0149515 0 0.00073324 0.0149515 0 -0.0122727
0.00861039 0 -0.00177041 -0.0148921 0 0.00177041 -0.0148921 0 -0.002 0.0149014
0 0.002 0.0149014 0 -0.0138571 0.0058356 0 -2.94473e-19 -0.0150496 0
0.0123323 0.00865631 0 0.0139177 0.00588264 0 -0.0138571 -0.00669653 0 0.0139177
-0.00664864 0 -0.00319452 0.0151003 0 0.00320133 0.0151053 0 -0.0154877 0.000155282
0 -0.0138571 0.00694702 0 -0.00451419 0.0148583 0 0.0045263 0.0148673 0
0.00928347 -0.0124665 0 -0.00923755 -0.0125028 0 0.0155453 0.000200444 0 -0.0154877
-0.00156548 0 0.0139177 0.00699399 0 -0.0154877 0.00175466 0 -0.0107333 -0.011318
0 0.0107879 -0.0112748 0 0.0155453 -0.00152021 0 0.0155453 0.00179972 0
0.00781802 -0.0136273 0 -0.00778421 -0.0136541 0 -0.002 0.0156411 0 0.002
0.0156411 0 -0.000730172 0.0157833 0 0.000730172 0.0157833 0 -0.0154877 0.0032412
0 -0.0154877 -0.00341685 0 0.0155453 0.00328617 0 -0.0122727 -0.0100985 0
0.0155453 -0.00337146 0 0.0123323 -0.0100514 0 -0.0138571 0.00798004 0 0.0139177
0.00802694 0 0.00639053 -0.0147581 0 -0.00637208 -0.0147727 0 -0.00451419 0.0154432
0 0.0045263 0.0154521 0 -0.00319452 0.0157843 0 0.00320133 0.0157893 0
-0.0154877 0.00462288 0 0.0155453 0.00466776 0 -0.0154877 -0.00540874 0 -0.0138571
-0.00884348 0 0.0155453 -0.00536322 0 0.0139177 -0.00879545 0 -0.0138571 0.00894019
0 -0.002 0.0164411 0 0.002 0.0164411 0 0.0139177 0.00898702 0
-0.0154877 0.00590709 0 -0.005 -0.0158596 0 0.005 -0.0158596 0 0.0155453
0.00595189 0 -0.00451419 0.0160757 0 -0.000726854 0.0166828 0 0.000726854 0.0166828
0 0.0045263 0.0160846 0 -0.00319452 0.016524 0 0.00320133 0.016529 0
-0.00345386 -0.0165523 0 0.00345386 -0.0165523 0 -0.0138571 0.0098326 0 -0.00597213
0.0159359 0 0.00598764 0.0159474 0 -0.0154877 0.00710071 0 0.0139177 0.00987937
0 -0.00176404 -0.0169864 0 0.00176404 -0.0169864 0 0.0155453 0.00714543 0
-2.76391e-19 -0.0171343 0 -0.0171658 -0.000247278 0 0.0172162 -0.000207752 0 -0.0171658
0.00147028 0 -0.0154877 -0.0075518 0 0.0155453 -0.00750615 0 0.0172162 0.00150971
0 -0.0171658 -0.00209519 0 0.0172162 -0.00205556 0 0.0107879 -0.0135925 0
-0.0107333 -0.0136359 0 -0.00451419 0.0167597 0 0.0045263 0.0167686 0 -0.002
0.0173062 0 0.002 0.0173062 0 -0.0171658 0.00306667 0 -0.0122727 -0.0124125
0 0.00928347 -0.0147881 0 0.0123323 -0.0123652 0 -0.00923755 -0.0148246 0
0.0172162 0.00310601 0 -0.0154877 0.00821012 0 -0.00597213 0.0165208 0 0.00598764
0.0165323 0 0.0155453 0.00825477 0 -0.00319452 0.017324 0 0.00320133 0.017329
0 -0.0171658 -0.00408336 0 -0.000723266 0.0176555 0 0.000723266 0.0176555 0
0.0172162 -0.00404362 0 -0.0171658 0.00455044 0 0.00781802 -0.0159527 0 -0.00778421
-0.0159796 0 -0.0138571 -0.0111534 0 0.0139177 -0.0111052 0 0.0172162 0.0045897
0 -0.0154877 0.00924127 0 -0.00451419 0.0174994 0 0.0045263 0.0175084 0
0.0155453 0.00928585 0 -0.0171658 0.00592954 0 -0.00597213 0.0171533 0 0.00598764
0.0171648 0 0.0172162 0.00596872 0 0.00639053 -0.0170872 0 -0.00637208 -0.0171018
0 -0.0171658 -0.00622243 0 0.0172162 -0.00618257 0 -0.002 0.0182418 0
0.002 0.0182418 0 -0.0154877 -0.00985753 0 0.0155453 -0.00981172 0 -0.00319452
0.0181891 0 0.00320133 0.0181941 0 -0.0154877 0.0101997 0 0.0155453 0.0102442
0 -0.0171658 0.00721136 0 0.0172162 0.00725047 0 -0.000719385 0.0187075 0
0.000719385 0.0187075 0 -0.00758282 0.0171264 0 0.00759938 0.0171387 0 -0.00597213
0.0178373 0 0.00598764 0.0178488 0 -0.00451419 0.0182994 0 0.0045263 0.0183083
0 -0.005 -0.0181922 0 0.005 -0.0181922 0 -0.018893 -0.00073496 0
-0.018893 0.0011094 0 0.0189314 -0.000704684 0 0.0189314 0.0011396 0 -0.0154877
0.0110905 0 -0.018893 -0.0027193 0 -0.018893 0.00282365 0 -0.0171658 0.00840275
0 0.0189314 -0.00268894 0 0.0155453 0.0111349 0 0.0189314 0.00285377 0
-0.00344538 -0.0188361 0 0.00344538 -0.0188361 0 -0.0171658 -0.00852385 0 0.0172162
0.00844179 0 0.0172162 -0.00848386 0 -0.00758282 0.0177113 0 0.00759938 0.0177235
0 -0.0122727 -0.0149021 0 0.0123323 -0.0148546 0 -0.00175719 -0.0192397 0
[...]
CELL_DATA 15677
FIELD attributes 1
U 3 15677 float
-0.30486 10.2652 0 0.190464 10.9192 0 -0.101143 9.44697 0 0.0315451 10.9901
0 0.118817 10.7326 0 -0.0119374 8.75915 0 0.0455109 11.0075 0
0.0144368 10.9817 0 0.057681 10.4726 0 0.0115162 8.23068 0 0.0466721
11.0123 0 0.0433345 11.0313 0 0.0260378 10.9293 0 0.0318718 10.192
0 0.0113088 7.85803 0 0.0439849 11.0135 0 0.0423217 11.0441 0
0.0427261 11.0215 0 0.0331685 10.8615 0 0.0213323 9.90487 0 0.00642591
7.61439 0 0.0413462 11.0136 0 0.0403441 11.0462 0 0.0400961 11.0454
0 0.0397909 11.0061 0 0.0327452 10.771 0 0.0159118 9.64021 0
0.00248772 7.46176 0 0.0385994 11.0131 0 0.0388641 11.0454 0 0.0392355
11.054 0 0.0383599 11.0457 0 0.0357337 10.9844 0 0.0287829 10.6596
0 0.0121254 9.41567 0 0.00054467 7.36574 0 0.035567 11.0123 0
0.0372156 11.0436 0 0.0385229 11.0566 0 0.0382637 11.0599 0 0.0358893
11.0439 0 0.0317183 10.9553 0 0.024003 10.5358 0 0.00898431 9.24122
0 -2.41168e-08 7.30411 0 0.0322784 11.0113 0 0.0352738 11.0412 0
0.0373853 11.0563 0 0.0376528 11.0652 0 0.0359067 11.0651 0 0.0327462
11.0388 0 0.028299 10.9205 0 0.0194152 10.4019 0 0.00642014 9.11097
0 -0.00025513 7.26198 0 0.0287944 11.0101 0 0.0331044 11.0383 0
0.0359343 11.0546 0 0.0366479 11.0664 0 0.0352889 11.0735 0 0.0327368
11.0687 0 0.0296475 11.032 0 0.0252959 10.8797 0 0.0153908 10.2738
0 0.00436349 9.01659 0 -0.000487673 7.238 0 0.0251856 11.0089 0
0.0307308 11.035 0 0.0342161 11.052 0 0.0353618 11.0655 0 0.0343112
11.0763 0 0.0321184 11.0809 0 0.0295435 11.0718 0 0.0266603 11.025
0 0.0220928 10.8349 0 0.0117677 10.1642 0 0.00261906 8.95115 0
-0.000689444 7.22695 0 0.0215057 11.0077 0 0.0281661 11.0313 0 0.0322214
11.0487 0 0.033801 11.0634 0 0.0330343 11.0764 0 0.0310978 11.0857
0 0.0288136 11.0884 0 0.0263959 11.0762 0 0.0233754 11.0188 0
0.018397 10.7896 0 0.00836747 10.0759 0 0.00105263 8.9096 0 -0.0011083
7.22942 0 0.0177766 11.0065 0 0.0254612 11.0274 0 0.0299381 11.0448
0 0.0319477 11.0603 0 0.0314612 11.0748 0 0.0297282 11.0868 0
0.0276013 11.0954 0 0.0254025 11.0975 0 0.0229112 11.0828 0 0.0196881
11.014 0 0.0142721 10.7465 0 0.00505158 10.0111 0 -0.000606231 8.88914
0 -0.00173244 7.24523 0 0.0145736 11.0053 0 0.0227135 11.0234 0
0.0273782 11.0404 0 0.029783 11.0565 0 0.0295815 11.072 0 0.028024
11.0859 0 0.025976 11.0978 0 0.0238279 11.107 0 0.0215091 11.1094
0 0.0188866 11.0925 0 0.0154931 11.0118 0 0.00978853 10.7112 0
0.00156057 9.96911 0 -0.00227284 8.88777 0 -0.00240035 7.27469 0 0.0119765
11.0043 0 0.0200913 11.0198 0 0.0246012 11.0357 0 0.027291 11.0519
0 0.0273774 11.0683 0 0.0259792 11.0835 0 0.0239617 11.0976 0
0.0217629 11.1107 0 0.0194151 11.1213 0 0.0169066 11.1246 0 0.0141363
11.106 0 0.0105868 11.0139 0 0.00489227 10.6866 0 -0.0020202 9.9489
0 -0.00416552 8.90473 0 -0.00322889 7.31795 0 0.00982214 11.0035 0
0.0177526 11.0166 0 0.0218955 11.0312 0 0.0244787 11.0468 0 0.0248279
11.0637 0 0.0235751 11.08 0 0.0215544 11.0956 0 0.0192347 11.1112
0 0.016735 11.1264 0 0.0141169 11.1392 0 0.0114037 11.1442 0
0.0084752 11.1245 0 0.00487747 11.0221 0 -0.000481784 10.6753 0 -0.00589102
9.94944 0 -0.00625698 8.93898 0 -0.00414605 7.37518 0 0.00807102 11.0028
0 0.0156375 11.0139 0 0.01945 11.0273 0 0.0216681 11.0417 0
0.0219204 11.0583 0 0.0207893 11.0754 0 0.0187364 11.0923 0 0.0162394
11.1096 0 0.0134946 11.1275 0 0.0106215 11.1455 0 0.00771634 11.1615
0 0.00479844 11.169 0 0.00179041 11.1489 0 -0.00167 11.0381 0
-0.00635977 10.6786 0 -0.0100848 9.96979 0 -0.00855746 8.99046 0 -0.00514186
7.44615 0 0.00667975 11.0022 0 0.0137091 11.0115 0 0.0171903 11.0238
0 0.019072 11.0372 0 0.0189736 11.0528 0 0.0176048 11.0698 0
0.0154862 11.0877 0 0.0127604 11.1064 0 0.00968709 11.1262 0 0.00644237
11.1474 0 0.00317339 11.1691 0 -1.67311e-05 11.1889 0 -0.00306632 11.1998
0 -0.00599626 11.1803 0 -0.00907273 11.0634 0 -0.0127756 10.6977 0
-0.014632 10.009 0 -0.0110509 9.05836 0 -0.00620438 7.53064 0 0.00551659
11.0018 0 0.0119278 11.0096 0 0.0150995 11.0207 0 0.016627 11.0332
0 0.01622 11.0477 0 0.0143647 11.064 0 0.0117885 11.082 0
0.00877957 11.1017 0 0.00529508 11.123 0 0.00156776 11.1463 0 -0.00220618
11.1715 0 -0.00586835 11.1978 0 -0.00927252 11.2225 0 -0.0123063 11.2376
0 -0.0149394 11.2198 0 -0.0173575 11.0993 0 -0.0197427 10.7329 0
-0.0195281 10.0664 0 -0.01373 9.1422 0 -0.00731536 7.62798 0 0.00456057
11.0014 0 0.0103391 11.008 0 0.0131638 11.0181 0 0.0143372 11.0295
0 0.0136075 11.043 0 0.0113311 11.0584 0 0.00803947 11.0758 0
0.00428729 11.0957 0 0.000302838 11.1182 0 -0.00402332 11.143 0 -0.00844221
11.1705 0 -0.0127432 11.2007 0 -0.0167256 11.2325 0 -0.020194 11.2629
0 -0.0229988 11.2831 0 -0.0250775 11.2684 0 -0.0265229 11.1469 0
-0.0272453 10.7845 0 -0.0247534 10.1411 0 -0.0165704 9.24116 0 -0.00847433
7.73748 0 0.00380044 11.0012 0 0.0089092 11.0068 0 0.0113937 11.0158
0 0.0122066 11.0263 0 0.0111534 11.0387 0 0.00845506 11.0531 0
0.00454169 11.0697 0 -0.000233225 11.089 0 -0.00529041 11.1117 0 -0.0103454
11.1378 0 -0.0155624 11.167 0 -0.0206735 11.1997 0 -0.0254266 11.2358
0 -0.029573 11.274 0 -0.0328844 11.3109 0 -0.0351964 11.3373 0
-0.03641 11.3267 0 -0.0365367 11.2068 0 -0.0352561 10.8522 0 -0.0302864
10.2322 0 -0.0195565 9.35451 0 -0.00966125 7.85837 0 0.00321531 11.001
0 0.0076782 11.0058 0 0.00977399 11.0139 0 0.0102391 11.0234 0
0.00886975 11.0348 0 0.00576294 11.0481 0 0.00124142 11.0637 0 -0.00442309
11.0822 0 -0.0108779 11.1042 0 -0.0173894 11.1306 0 -0.0235819 11.1612
0 -0.0296971 11.1958 0 -0.0354253 11.2347 0 -0.0404669 11.2776 0
-0.0445419 11.323 0 -0.0474138 11.3673 0 -0.0489057 11.4006 0 -0.0488982
11.3954 0 -0.0473368 11.2794 0 -0.0437313 10.9356 0 -0.0360867 10.3388
0 -0.0226464 9.48114 0 -0.0108459 7.98945 0 0.00276002 11.0008 0
0.00666759 11.005 0 0.00836037 11.0122 0 0.00843405 11.0208 0 0.00676452
11.0312 0 0.00327395 11.0435 0 -0.00182625 11.058 0 -0.00834792 11.0754
0 -0.0160226 11.0966 0 -0.024385 11.1221 0 -0.0324811 11.1531 0
-0.0398323 11.1893 0 -0.0467739 11.2303 0 -0.052949 11.2762 0 -0.058027
11.3267 0 -0.0617224 11.3802 0 -0.0637982 11.4326 0 -0.0640874 11.4735
0 -0.062469 11.4748 0 -0.0588405 11.3647 0 -0.0526042 11.0337 0
-0.0420826 10.4594 0 -0.0257907 9.61977 0 -0.0120146 8.12945 0 0.00239957
11.0007 0 0.00584141 11.0044 0 0.00718418 11.011 0 0.00686055 11.0187
0 0.00484296 11.028 0 0.00100154 11.0392 0 -0.00463438 11.0525 0
-0.0119641 11.0687 0 -0.0208073 11.0887 0 -0.0307906 11.1133 0 -0.041281
11.1434 0 -0.051049 11.1799 0 -0.0594973 11.2227 0 -0.0670914 11.271
0 -0.0734437 11.325 0 -0.0782202 11.384 0 -0.0811433 11.4462 0
-0.0820021 11.5073 0 -0.0806568 11.5564 0 -0.0770062 11.565 0 -0.0709267
11.4624 0 -0.0617675 11.1458 0 -0.0482143 10.5929 0 -0.0289512 9.76904
0 -0.0131557 8.27704 0 0.00210961 11.0006 0 0.00515891 11.004 0
0.00620513 11.0099 0 0.00555823 11.0169 0 0.00318194 11.0252 0 -0.00104474
11.0352 0 -0.0071631 11.0473 0 -0.0152364 11.0622 0 -0.0251784 11.0808
0 -0.0367126 11.1041 0 -0.0493059 11.1331 0 -0.0621089 11.1687 0
-0.0735552 11.2119 0 -0.0829295 11.2622 0 -0.0908911 11.3189 0 -0.0970517
11.3816 0 -0.101092 11.4498 0 -0.102772 11.5213 0 -0.101929 11.5915
0 -0.0984808 11.6494 0 -0.092377 11.6659 0 -0.083471 11.572 0
-0.0711118 11.2704 0 -0.0544091 10.7378 0 -0.0320917 9.92746 0 -0.014248
8.4308 0 0.00187321 11.0006 0 0.00459031 11.0036 0 0.00538637 11.0091
0 0.00448485 11.0154 0 0.00182346 11.0228 0 -0.00278166 11.0316 0
-0.00939791 11.0424 0 -0.0181377 11.0559 0 -0.0290907 11.073 0 -0.0420845
11.0947 0 -0.0566919 11.1222 0 -0.0721677 11.1565 0 -0.0873947 11.1986
0 -0.100416 11.2496 0 -0.110422 11.3086 0 -0.11835 11.3744 0
-0.123836 11.4468 0 -0.126611 11.5246 0 -0.126503 11.6058 0 -0.123434
11.6855 0 -0.117397 11.7522 0 -0.108399 11.777 0 -0.0963318 11.6927
0 -0.080548 11.4064 0 -0.0605869 10.8926 0 -0.0351728 10.0935 0
-0.0152809 8.58927 0 0.00167826 11.0005 0 0.0041144 11.0033 0 0.0046988
11.0084 0 0.00359726 11.0142 0 0.000720769 11.0208 0 -0.00417074 11.0285
0 -0.0112471 11.0379 0 -0.0206476 11.0498 0 -0.0325083 11.0652 0
-0.0468488 11.0852 0 -0.0633566 11.1109 0 -0.0813991 11.1435 0 -0.0999634
11.1843 0 -0.11762 11.234 0 -0.131981 11.2938 0 -0.14219 11.3625
0 -0.149555 11.4383 0 -0.153779 11.5208 0 -0.154676 11.6088 0
-0.152179 11.6999 0 -0.146317 11.789 0 -0.137189 11.8645 0 -0.124885
11.8979 0 -0.109344 11.8234 0 -0.0899624 11.5522 0 -0.0666721 11.0557
0 -0.0381614 10.2656 0 -0.016256 8.75105 0 0.0015159 11.0005 0
0.00371323 11.0031 0 0.00411786 11.0078 0 0.00286032 11.0131 0 -0.000175593
11.0191 0 -0.00526892 11.0259 0 -0.0126789 11.034 0 -0.0226633 11.0441
0 -0.0354034 11.0577 0 -0.0509581 11.0757 0 -0.0692267 11.0993 0
-0.0897002 11.1299 0 -0.111481 11.1687 0 -0.133239 11.217 0 -0.1532
11.2755 0 -0.168524 11.3452 0 -0.178364 11.4244 0 -0.184509 11.5109
0 -0.186771 11.604 0 -0.185096 11.7024 0 -0.17956 11.8033 0
-0.170332 11.9018 0 -0.157621 11.9859 0 -0.141633 12.0276 0 -0.122354
11.9631 0 -0.0992427 11.7064 0 -0.072602 11.2254 0 -0.0410373 10.4421
0 -0.0170898 8.91501 0 0.00137948 11.0004 0 0.00337316 11.0029 0
0.00362697 11.0074 0 0.00224536 11.0123 0 -0.00090568 11.0177 0 -0.0061349
11.0237 0 -0.0137668 11.0306 0 -0.0241633 11.0392 0 -0.0376578 11.0506
0 -0.0543754 11.0663 0 -0.0742407 11.0876 0 -0.0969777 11.1157 0
-0.12182 11.1522 0 -0.147549 11.1984 0 -0.172474 11.2553 0 -0.194471
11.3237 0 -0.210217 11.4043 0 -0.218952 11.4948 0 -0.223085 11.5926
0 -0.222596 11.6966 0 -0.217606 11.8053 0 -0.208365 11.916 0
-0.195198 12.0233 0 -0.17845 12.1157 0 -0.158438 12.1652 0 -0.135216
12.1104 0 -0.108289 11.8673 0 -0.078333 11.4001 0 -0.0437316 10.6217
0 -0.0183706 9.07838 0 0.00126387 11.0004 0 0.00308369 11.0027 0
0.00320483 11.007 0 0.00173028 11.0115 0 -0.00150175 11.0165 0 -0.00681614
11.0218 0 -0.0145838 11.0278 0 -0.0252445 11.0349 0 -0.0392632 11.0443
0 -0.0569609 11.0573 0 -0.0783487 11.0758 0 -0.103152 11.1013 0
-0.130862 11.135 0 -0.160389 11.1785 0 -0.190147 11.2332 0 -0.218071
11.2999 0 -0.241647 11.3793 0 -0.257091 11.4717 0 -0.263838 11.5742
0 -0.265065 11.6835 0 -0.260971 11.7984 0 -0.251891 11.9173 0
-0.238276 12.0373 0 -0.220622 12.153 0 -0.199422 12.2529 0 -0.175103
12.3098 0 -0.147788 12.264 0 -0.117028 12.0335 0 -0.0837934 11.5785
0 -0.046871 10.8024 0 -0.0195592 9.27061 0 0.00116515 11.0004 0
0.00283646 11.0026 0 0.00284372 11.0066 0 0.00130016 11.0109 0 -0.0019898
11.0154 0 -0.0073508 11.0202 0 -0.015189 11.0252 0 -0.0260002 11.0312
0 -0.0403479 11.0388 0 -0.0587222 11.0494 0 -0.0813819 11.0646 0
-0.108156 11.0867 0 -0.138503 11.1173 0 -0.171611 11.1576 0 -0.206022
11.2093 0 -0.239747 11.2737 0 -0.270295 11.3515 0 -0.294809 11.4428
0 -0.309056 11.5478 0 -0.312803 11.6627 0 -0.310138 11.7837 0
-0.301536 11.9094 0 -0.287577 12.038 0 -0.268936 12.1666 0 -0.246295
12.2899 0 -0.220284 12.3966 0 -0.191437 12.4601 0 -0.159961 12.4225
0 -0.125367 12.2035 0 -0.0893633 11.7585 0 -0.0496117 11.004 0
-0.0198435 9.46785 0 0.00108025 11.0004 0 0.00262457 11.0024 0 0.0025325
11.0063 0 0.000935771 11.0103 0 -0.00239026 11.0145 0 -0.00776943 11.0187
0 -0.0156295 11.0231 0 -0.0265056 11.0279 0 -0.0410327 11.034 0
-0.0598284 11.0424 0 -0.083366 11.0546 0 -0.111784 11.0727 0 -0.144655
11.0992 0 -0.181083 11.1359 0 -0.219912 11.1841 0 -0.259257 11.2454
0 -0.296677 11.3207 0 -0.329281 11.4106 0 -0.353898 11.5147 0
-0.365892 11.6328 0 -0.365503 11.7605 0 -0.357891 11.893 0 -0.343853
12.0291 0 -0.324244 12.1668 0 -0.299975 12.3033 0 -0.271908 12.4333
0 -0.240797 12.5457 0 -0.207285 12.6148 0 -0.171609 12.5847 0
-0.133507 12.3755 0 -0.0946229 11.9595 0 -0.0513578 11.2249 0 -0.0202034
9.66039 0 0.00100672 11.0003 0 0.00244218 11.0023 0 0.00226668 11.006
0 0.00062682 11.0099 0 -0.00272047 11.0137 0 -0.00809642 11.0175 0
-0.0159427 11.0212 0 -0.0268204 11.0251 0 -0.0414143 11.0298 0 -0.0604357
11.0362 0 -0.0845214 11.0456 0 -0.114079 11.06 0 -0.149061 11.0817
0 -0.18869 11.1137 0 -0.231647 11.1578 0 -0.27637 11.2152 0
-0.320496 11.2872 0 -0.361131 11.3747 0 -0.395015 11.4776 0 -0.418705
11.5953 0 -0.427228 11.727 0 -0.421474 11.8674 0 -0.407827 12.0111
0 -0.387438 12.157 0 -0.361455 12.303 0 -0.331021 12.4464 0
-0.297163 12.582 0 -0.260752 12.6992 0 -0.222486 12.773 0 -0.182799
12.7488 0 -0.141624 12.568 0 -0.099253 12.1805 0 -0.0532671 11.4416
0 -0.0205879 9.84617 0 0.000943058 11.0003 0 0.00228408 11.0023 0
0.00203742 11.0058 0 0.000361597 11.0094 0 -0.00299376 11.013 0 -0.00835115
11.0164 0 -0.0161583 11.0195 0 -0.0269918 11.0226 0 -0.0415696 11.026
0 -0.0606693 11.0307 0 -0.0850496 11.0377 0 -0.115326 11.0486 0
-0.151784 11.0658 0 -0.194104 11.0921 0 -0.241078 11.1307 0 -0.290874
11.1835 0 -0.341467 11.2513 0 -0.390005 11.3354 0 -0.433153 11.4362
0 -0.467309 11.5532 0 -0.488851 11.6849 0 -0.492566 11.8304 0
-0.480164 11.9831 0 -0.459392 12.1376 0 -0.43178 12.2923 0 -0.398768
12.4456 0 -0.361714 12.5949 0 -0.321793 12.735 0 -0.279944 12.8559
0 -0.236993 12.9329 0 -0.194202 12.9328 0 -0.149267 12.7801 0
-0.103654 12.3981 0 -0.055088 11.6517 0 -0.0208977 10.0238 0 0.00214531
11.0022 0 0.000867195 11.0003 0 0.00183707 11.0056 0 0.000135491 11.0091
0 -0.00322084 11.0124 0 -0.00854904 11.0155 0 -0.0162995 11.018 0
-0.0270568 11.0204 0 -0.0415589 11.0228 0 -0.0606283 11.0259 0 -0.0851119
11.0307 0 -0.115782 11.0386 0 -0.153185 11.0516 0 -0.19741 11.0724
0 -0.247791 11.1042 0 -0.302572 11.1507 0 -0.359326 11.2135 0
-0.415553 11.2932 0 -0.467893 11.3907 0 -0.512597 11.5058 0 -0.545801
11.6375 0 -0.563815 11.7836 0 -0.561291 11.9427 0 -0.54094 12.1074
0 -0.51199 12.2717 0 -0.476356 12.4343 0 -0.435749 12.5939 0
-0.39172 12.7477 0 -0.345544 12.8913 0 -0.298241 13.0143 0 -0.251982
13.1123 0 -0.205284 13.1357 0 -0.15618 12.9893 0 -0.107602 12.6099
0 -0.0566194 11.8535 0 -0.0211142 10.1929 0 0.00165976 11.0054 0
0.00198462 11.0021 0 0.000776547 11.0003 0 -5.94163e-05 11.0087 0 -0.00340998
11.0119 0 -0.00870193 11.0146 0 -0.0163846 11.0168 0 -0.0270443 11.0184
0 -0.0414291 11.0199 0 -0.0603905 11.0216 0 -0.0848361 11.0245 0
-0.115653 11.0296 0 -0.153589 11.0389 0 -0.199055 11.0546 0 -0.251879
11.0799 0 -0.310939 11.1184 0 -0.373818 11.1742 0 -0.437443 11.2486
0 -0.498811 11.3416 0 -0.554073 11.4536 0 -0.599129 11.5839 0
-0.62996 11.7308 0 -0.642938 11.8914 0 -0.632693 12.0636 0 -0.603114
12.2395 0 -0.565005 12.4126 0 -0.520645 12.5821 0 -0.47199 12.7466
0 -0.420724 12.9039 0 -0.368211 13.0493 0 -0.317294 13.192 0
-0.266831 13.3101 0 -0.215197 13.3359 0 -0.162309 13.1934 0 -0.110941
12.8141 0 -0.0578523 12.0462 0 -0.0212319 10.353 0 -0.000233999 11.0084
0 0.00146786 11.0052 0 0.00178692 11.002 0 0.000689195 11.0003 4.19142e-19
-0.00356965 11.0114 0 -0.00881902 11.0139 0 -0.0164275 11.0156 0 -0.0269766
11.0167 0 -0.0412167 11.0174 0 -0.0600158 11.0179 0 -0.0843221 11.019
0 -0.115105 11.0217 0 -0.153259 11.0276 0 -0.199449 11.0387 0
-0.253898 11.0579 0 -0.316072 11.0887 0 -0.38428 11.1353 0 -0.455356
11.2018 0 -0.525501 11.2893 0 -0.591232 11.3969 0 -0.648262 11.5245
0 -0.692235 11.6708 0 -0.719103 11.8331 0 -0.725443 12.008 0
-0.705993 12.1928 0 -0.665974 12.3789 0 -0.617827 12.5597 0 -0.564159
12.7346 0 -0.507108 12.9028 0 -0.448458 13.062 0 -0.391932 13.2268
0 -0.33642 13.3881 0 -0.280081 13.5055 0 -0.223981 13.5316 0
-0.167546 13.3905 0 -0.113694 13.0097 0 -0.0588057 12.2294 0 -0.0212543
10.5038 0 -0.00371586 11.011 0 -0.000403562 11.0081 0 0.00123945 11.0049
1.8351e-18 0.00159263 11.0019 -1.32713e-18 0.000604957 11.0002 -8.50648e-19 -0.00890956 11.0133 0
-0.0164383 11.0147 0 -0.0268702 11.0153 0 -0.0409496 11.0151 0 -0.0595508
11.0146 0 -0.0836469 11.0141 0 -0.114263 11.0147 0 -0.152403 11.0175
0 -0.198921 11.0245 0 -0.254353 11.0382 0 -0.318643 11.0619 0
-0.39079 11.0994 0 -0.468446 11.1555 0 -0.54756 11.2343 0 -0.623583
11.3363 0 -0.692605 11.4599 0 -0.74998 11.6041 0 -0.791223 11.7668
0 -0.812406 11.9445 0 -0.810466 12.1331 0 -0.780369 12.3296 0
-0.728801 12.5246 0 -0.669869 12.7117 0 -0.606435 12.8909 0 -0.54077
13.0612 0 -0.477592 13.2397 0 -0.415958 13.4227 0 -0.353532 13.5819
0 -0.291812 13.6965 0 -0.231549 13.7208 0 -0.17192 13.5797 0
-0.11591 13.1962 0 -0.059507 12.4026 0 -0.0211942 10.6453 0 -0.00899712
11.0127 0 -0.00381936 11.0105 -3.71336e-18 -0.000589981 11.0076 -1.93213e-18 0.00101928 11.0047
9.31634e-19 0.00140346 11.0017 -8.97443e-19 0.000524019 11.0002 0 -0.0164269 11.0138 0
-0.0267368 11.0139 0 -0.0406481 11.0132 0 -0.0590306 11.0117 0 -0.0828697
11.0099 0 -0.113227 11.0085 0 -0.151183 11.0086 0 -0.197732 11.0119
0 -0.253653 11.0206 0 -0.31927 11.0377 0 -0.394155 11.0668 0
-0.476757 11.1125 0 -0.56392 11.1795 0 -0.650622 11.2723 0 -0.731567
11.3904 0 -0.802507 11.5311 0 -0.858556 11.6926 0 -0.895242 11.8718
0 -0.908931 12.0647 0 -0.897076 12.2663 0 -0.854981 12.4733 0
-0.790898 12.6759 0 -0.720581 12.8679 0 -0.647065 13.0496 0 -0.576247
13.2394 0 -0.507295 13.436 0 -0.437533 13.6163 0 -0.368697 13.7714
0 -0.301969 13.8814 0 -0.237925 13.9027 0 -0.175493 13.7604 0
-0.117634 13.3731 0 -0.0599874 12.5657 0 -0.021066 10.7774 0 -0.0164277
11.013 0 -0.00898685 11.012 7.81493e-18 -0.0038917 11.0099 0 -0.000770729 11.0072
1.96015e-18 0.000807319 11.0044 6.16178e-22 0.00121885 11.0016 0 0.000446438 11.0002 0
-0.026587 11.0128 0 -0.0403258 11.0114 0 -0.0584809 11.0091 0 -0.0820357
11.0061 0 -0.112073 11.003 0 -0.149725 11.0007 0 -0.196088 11.0007
0 -0.252123 11.0049 0 -0.318456 11.016 0 -0.395121 11.0374 0
-0.481236 11.0733 0 -0.574553 11.1285 0 -0.671008 11.2083 0 -0.764532
11.3166 0 -0.849119 11.4522 0 -0.920316 11.6109 0 -0.97314 11.7902
0 -1.00331 11.986 0 -1.00767 12.1933 0 -0.984311 12.4069 0
-0.928996 12.6229 0 -0.851603 12.8316 0 -0.769465 13.0269 0 -0.690035
13.2284 0 -0.612599 13.4366 0 -0.534076 13.6303 0 -0.456687 13.8058
0 -0.381892 13.9551 0 -0.310581 14.0594 0 -0.243192 14.0766 0
-0.178333 13.9321 0 -0.118922 13.5403 0 -0.0602786 12.7188 0 -0.020883
10.9006 0 -0.02647 11.0118 0 -0.0162528 11.0121 2.27397e-22 -0.00886291 11.0112
0 -0.00396196 11.0093 -2.06223e-18 -0.000941527 11.0068 4.91083e-22 0.000601828 11.0042 0
0.0010388 11.0015 0 0.000372216 11.0002 0 -0.0399938 11.0099 0 -0.0579175
11.0068 0 -0.081177 11.0028 0 -0.110858 10.9981 0 -0.148125 10.9937
0 -0.194148 10.9907 0 -0.250022 10.9909 0 -0.316604 10.9966 0
-0.394296 11.0109 0 -0.482773 11.0378 0 -0.580559 11.0819 0 -0.684601
11.1484 0 -0.789827 11.2425 0 -0.889067 11.368 0 -0.975686 11.5223
0 -1.04521 11.6999 0 -1.09273 11.8971 0 -1.11436 12.109 0
-1.10755 12.3299 0 -1.07122 12.5541 0 -1.00162 12.7777 0 -0.910304
12.9907 0 -0.821336 13.2065 0 -0.734249 13.4268 0 -0.645513 13.6319
0 -0.557914 13.8206 0 -0.473412 13.9897 0 -0.393158 14.132 0
-0.317751 14.2298 0 -0.247445 14.242 0 -0.180515 14.0945 0 -0.119826
13.6975 0 -0.0604077 12.8621 0 -0.0206564 11.015 0 -0.0397228 11.0085
0 -0.0260695 11.0106 -4.32136e-18 -0.0158386 11.011 0 -0.00874326 11.0103 0
-0.00401812 11.0087 6.27307e-18 -0.00110179 11.0064 0 0.000403497 11.0039 0 0.000863532
11.0014 1.87015e-18 0.000301396 11.0002 0 -0.0573525 11.0048 0 -0.0803127 10.9998
0 -0.109622 10.9938 0 -0.146456 10.9875 0 -0.192032 10.9819 0
-0.247546 10.9784 0 -0.31403 10.9793 0 -0.392174 10.9872 0 -0.482101
11.0058 0 -0.582985 11.0395 0 -0.692655 11.0933 0 -0.807142 11.1728
0 -0.92028 11.283 0 -1.02378 11.4272 0 -1.11051 11.6013 0
-1.17619 11.7982 0 -1.21621 12.0132 0 -1.22724 12.2405 0 -1.20753
12.4739 0 -1.15689 12.7072 0 -1.07212 12.9365 0 -0.9728 13.1709
0 -0.874899 13.4061 0 -0.774424 13.6235 0 -0.674892 13.8235 0
-0.578808 14.0054 0 -0.487768 14.167 0 -0.402613 14.3015 0 -0.323601
14.3921 0 -0.250785 14.3987 0 -0.182116 14.2476 0 -0.120396 13.8451
0 -0.0604013 12.9958 0 -0.0203974 11.1211 0 -0.0568856 11.003 0
-0.0390208 11.007 0 -0.0252473 11.0092 -4.72227e-18 -0.01544 11.01 -4.55779e-18 -0.0086035
11.0095 -8.7925e-18 -0.00406006 11.0081 0 -0.00125232 11.006 -4.08474e-18 0.000212887 11.0037
-3.93501e-18 0.000693076 11.0013 1.89388e-18 0.000233908 11.0002 0 -0.0794559 10.9972 0
-0.10839 10.99 0 -0.144769 10.982 0 -0.189835 10.9741 0 -0.244851
10.9674 0 -0.310983 10.9639 0 -0.389144 10.966 0 -0.479813 10.977
0 -0.582701 11.0011 0 -0.696387 11.0431 0 -0.817886 11.1085 0