# vtk DataFile Version 2.0
sampleSurface
ASCII
DATASET POLYDATA
POINTS 15978 float
-4.26165e-19 0.000133477 0 -4.18079e-19 -0.000798814 0 -4.33681e-19 0.001 0 -4.09379e-19 -0.00180187
0 -0.00181681 0.000361473 0 0.00181681 0.000361473 0 -0.00181396 -0.000575145 0
0.00181396 -0.000575145 0 -0.00181945 0.00123202 0 0.00181945 0.00123202 0 -0.00181089
-0.00158285 0 0.00181089 -0.00158285 0 -4.00018e-19 -0.00288105 0 -0.00180759 -0.00266704
0 0.00180759 -0.00266704 0 -0.00351565 8.15481e-05 0 0.00351565 8.15481e-05 0
-0.00351186 -0.000939823 0 0.00351186 -0.000939823 0 -0.00351918 0.00103087 0 0.00351918
0.00103087 0 -0.00352245 0.00191322 0 0.00352245 0.00191322 0 -3.89947e-19 -0.00404214
0 -0.00350777 -0.00203871 0 0.00350777 -0.00203871 0 -0.00180405 -0.00383352 0
0.00180405 -0.00383352 0 -0.00350338 -0.00322101 0 0.00350338 -0.00322101 0 -0.005
8.60602e-05 0 0.005 8.60602e-05 0 -0.005 -0.00103629 0 0.005 -0.00103629
0 -0.005 0.00112923 0 0.005 0.00112923 0 -3.79112e-19 -0.00529135 0
-0.00180023 -0.00508853 0 0.00180023 -0.00508853 0 -0.005 0.00209882 0 0.005
0.00209882 0 -0.005 -0.00224382 0 0.005 -0.00224382 0 -0.00349866 -0.00449304
0 0.00349866 -0.00449304 0 -0.005 0.003 0 0.005 0.003 0
-0.005 -0.003543 0 0.005 -0.003543 0 -0.00637208 2.82617e-05 0 0.00639053
4.25732e-05 0 -0.00637208 0.00114892 0 -0.00637208 -0.00117745 0 0.00639053 -0.00116311
0 0.00639053 0.00116321 0 -3.67455e-19 -0.00663538 0 -0.00179612 -0.00643879 0
0.00179612 -0.00643879 0 -0.00637208 0.00219052 0 0.00639053 0.00220479 0 -0.00349357
-0.00586162 0 0.00349357 -0.00586162 0 -0.00637208 -0.00247467 0 0.00639053 -0.00246031
0 -0.005 -0.00494079 0 0.005 -0.00494079 0 -0.00637208 0.00315864 0
0.00639053 0.00317289 0 -0.00637208 -0.00387036 0 0.00639053 -0.00385597 0 -0.00637208
0.00405846 0 0.00639053 0.00407269 0 -0.00778421 -7.99569e-05 0 0.00781802 -5.3679e-05
0 -0.00778421 0.00112388 0 0.00781802 0.00115011 0 -0.00778421 -0.00137517 0
0.00781802 -0.00134884 0 -3.54912e-19 -0.00808142 0 -0.0017917 -0.00789154 0 0.0017917
-0.00789154 0 -0.00778421 0.0022428 0 -0.0034881 -0.00733407 0 0.0034881 -0.00733407
0 0.00781802 0.00226899 0 -0.005 -0.00644467 0 0.005 -0.00644467 0
-0.00778421 -0.00276868 0 0.00781802 -0.0027423 0 -0.00637208 -0.00537197 0 0.00639053
-0.00535755 0 -0.00778421 0.00328278 0 0.00781802 0.00330893 0 -0.00778421 0.00424939
0 -0.00778421 -0.00426796 0 0.00781802 -0.00424152 0 0.00781802 0.00427551 0
-0.00923755 -0.000243565 0 0.00928347 -0.000207818 0 -0.00923755 0.00104957 0 -0.00778421
0.00514782 0 0.00928347 0.00108525 0 0.00781802 0.0051739 0 -0.00923755 -0.00163485
0 0.00928347 -0.00159903 0 -0.00637208 -0.00698755 0 0.00639053 -0.0069731 0
-0.005 -0.0080627 0 0.005 -0.0080627 0 -0.00923755 0.00225148 0 0.00928347
0.0022871 0 -0.00348222 -0.00891827 0 0.00348222 -0.00891827 0 -0.00178695 -0.00945455
0 0.00178695 -0.00945455 0 -3.41418e-19 -0.00963721 0 -0.00923755 -0.00313172 0
-0.00778421 -0.00588103 0 0.00781802 -0.00585453 0 0.00928347 -0.00309583 0 -0.00923755
0.0033686 0 0.00928347 0.00340416 0 -0.00923755 0.00440692 0 0.00928347 0.00444243
0 -0.00923755 -0.00474221 0 0.00928347 -0.00470623 0 -0.00923755 0.00537198 0
-0.0107333 -0.000467921 0 0.00928347 0.00540745 0 -0.0107333 0.000921062 0 0.0107879
-0.000425364 0 0.00639053 -0.00871127 0 -0.00637208 -0.00872575 0 0.0107879 0.000963535
0 -0.00778421 -0.00761653 0 0.00781802 -0.00758997 0 -0.0107333 -0.00196233 0
0.0107879 -0.00191968 0 -0.0107333 0.00221206 0 -0.005 -0.00980352 0 0.005
-0.00980352 0 0.0107879 0.00225445 0 -0.00923755 0.00626897 0 -0.00347589 -0.0106227
0 0.00347589 -0.0106227 0 0.00928347 0.00630439 0 -0.0107333 0.00341198 0
-0.00178183 -0.0111362 0 0.00178183 -0.0111362 0 -0.00923755 -0.00647493 0 0.00928347
-0.00643887 0 -3.26899e-19 -0.0113111 0 -0.0107333 -0.00357015 0 0.0107879 0.00345431
0 0.0107879 -0.00352741 0 -0.0107333 0.00452726 0 0.0107879 0.00456952 0
-0.0107333 -0.00530001 0 0.0107879 -0.00525717 0 -0.0107333 0.00556386 0 0.0107879
0.00560606 0 -0.000743369 0.0122055 0 0.000743369 0.0122055 0 -0.00778421 -0.00948375
0 0.00781802 -0.00945713 0 -0.0122727 0.000733061 0 -0.0122727 -0.000758799 0
0.0123323 -0.000712262 0 0.0123323 0.0007795 0 0.00639053 -0.0105814 0 -0.00637208
-0.0105959 0 -0.00923755 -0.00833916 0 -0.0122727 0.00211968 0 0.00928347 -0.00830301
0 -0.0122727 -0.00236389 0 0.0123323 0.00216603 0 0.0123323 -0.00231725 0
-0.0107333 0.00652734 0 0.0107879 0.00656947 0 -0.005 -0.0116765 0 0.005
-0.0116765 0 -0.0122727 0.00340848 0 0.0123323 0.00345474 0 -0.000741126 0.0128136
0 0.000741126 0.0128136 0 -0.0107333 -0.00716117 0 0.0107879 -0.00711821 0
-0.00346908 -0.0124565 0 0.00346908 -0.0124565 0 -0.0122727 -0.00409081 0 0.0123323
-0.00404405 0 -0.0107333 0.00742284 0 -0.00177633 -0.0129455 0 0.00177633 -0.0129455
0 -0.0122727 0.00460636 0 -3.11279e-19 -0.013112 0 0.0107879 0.00746492 0
-0.002 0.013 0 0.002 0.013 0 0.0123323 0.00465255 0 -0.0007387
0.0134712 0 0.0007387 0.0134712 0 -0.0122727 0.00571974 0 0.0123323 0.00576585
0 -0.0122727 -0.00594879 0 0.0123323 -0.00590191 0 -0.002 0.0135849 0
0.002 0.0135849 0 -0.0138571 0.000479853 0 -0.00923755 -0.0103449 0 0.00928347
-0.0103086 0 0.00781802 -0.011466 0 -0.00778421 -0.0114927 0 -0.0138571 -0.00112242
0 0.0139177 0.000527252 0 0.0139177 -0.00107491 0 -0.0138571 0.0019691 0
-0.0122727 0.00675458 0 0.0139177 0.00201639 0 0.0123323 0.00680062 0 -0.0107333
-0.00916358 0 0.00639053 -0.0125934 0 0.0107879 -0.0091205 0 -0.00637208 -0.012608
0 -0.0138571 -0.0028463 0 0.0139177 -0.00279868 0 -0.000736077 0.0141824 0
0.000736077 0.0141824 0 -0.00319452 0.0138829 0 0.00320133 0.0138879 0 -0.0138571
0.00335328 0 0.0139177 0.00340049 0 -0.002 0.0142174 0 0.002 0.0142174
0 -0.0122727 0.00771641 0 0.0123323 0.00776239 0 -0.005 -0.0136916 0
0.005 -0.0136916 0 -0.0138571 0.00463982 0 -0.0122727 -0.0079478 0 -0.0138571
-0.00470103 0 0.0123323 -0.00790078 0 0.0139177 -0.00465328 0 0.0139177 0.00468694
0 -0.00319452 0.0144678 0 0.00320133 0.0144728 0 -0.00346175 -0.0144295 0
0.00346175 -0.0144295 0 -0.00073324 0.0149515 0 0.00073324 0.0149515 0 -0.0122727
0.00861039 0 -0.00177041 -0.0148921 0 0.00177041 -0.0148921 0 -0.002 0.0149014
0 0.002 0.0149014 0 -0.0138571 0.0058356 0 -2.94473e-19 -0.0150496 0
0.0123323 0.00865631 0 0.0139177 0.00588264 0 -0.0138571 -0.00669653 0 0.0139177
-0.00664864 0 -0.00319452 0.0151003 0 0.00320133 0.0151053 0 -0.0154877 0.000155282
0 -0.0138571 0.00694702 0 -0.00451419 0.0148583 0 0.0045263 0.0148673 0
0.00928347 -0.0124665 0 -0.00923755 -0.0125028 0 0.0155453 0.000200444 0 -0.0154877
-0.00156548 0 0.0139177 0.00699399 0 -0.0154877 0.00175466 0 -0.0107333 -0.011318
0 0.0107879 -0.0112748 0 0.0155453 -0.00152021 0 0.0155453 0.00179972 0
0.00781802 -0.0136273 0 -0.00778421 -0.0136541 0 -0.002 0.0156411 0 0.002
0.0156411 0 -0.000730172 0.0157833 0 0.000730172 0.0157833 0 -0.0154877 0.0032412
0 -0.0154877 -0.00341685 0 0.0155453 0.00328617 0 -0.0122727 -0.0100985 0
0.0155453 -0.00337146 0 0.0123323 -0.0100514 0 -0.0138571 0.00798004 0 0.0139177
0.00802694 0 0.00639053 -0.0147581 0 -0.00637208 -0.0147727 0 -0.00451419 0.0154432
0 0.0045263 0.0154521 0 -0.00319452 0.0157843 0 0.00320133 0.0157893 0
-0.0154877 0.00462288 0 0.0155453 0.00466776 0 -0.0154877 -0.00540874 0 -0.0138571
-0.00884348 0 0.0155453 -0.00536322 0 0.0139177 -0.00879545 0 -0.0138571 0.00894019
0 -0.002 0.0164411 0 0.002 0.0164411 0 0.0139177 0.00898702 0
-0.0154877 0.00590709 0 -0.005 -0.0158596 0 0.005 -0.0158596 0 0.0155453
0.00595189 0 -0.00451419 0.0160757 0 -0.000726854 0.0166828 0 0.000726854 0.0166828
0 0.0045263 0.0160846 0 -0.00319452 0.016524 0 0.00320133 0.016529 0
-0.00345386 -0.0165523 0 0.00345386 -0.0165523 0 -0.0138571 0.0098326 0 -0.00597213
0.0159359 0 0.00598764 0.0159474 0 -0.0154877 0.00710071 0 0.0139177 0.00987937
0 -0.00176404 -0.0169864 0 0.00176404 -0.0169864 0 0.0155453 0.00714543 0
-2.76391e-19 -0.0171343 0 -0.0171658 -0.000247278 0 0.0172162 -0.000207752 0 -0.0171658
0.00147028 0 -0.0154877 -0.0075518 0 0.0155453 -0.00750615 0 0.0172162 0.00150971
0 -0.0171658 -0.00209519 0 0.0172162 -0.00205556 0 0.0107879 -0.0135925 0
-0.0107333 -0.0136359 0 -0.00451419 0.0167597 0 0.0045263 0.0167686 0 -0.002
0.0173062 0 0.002 0.0173062 0 -0.0171658 0.00306667 0 -0.0122727 -0.0124125
0 0.00928347 -0.0147881 0 0.0123323 -0.0123652 0 -0.00923755 -0.0148246 0
0.0172162 0.00310601 0 -0.0154877 0.00821012 0 -0.00597213 0.0165208 0 0.00598764
0.0165323 0 0.0155453 0.00825477 0 -0.00319452 0.017324 0 0.00320133 0.017329
0 -0.0171658 -0.00408336 0 -0.000723266 0.0176555 0 0.000723266 0.0176555 0
0.0172162 -0.00404362 0 -0.0171658 0.00455044 0 0.00781802 -0.0159527 0 -0.00778421
-0.0159796 0 -0.0138571 -0.0111534 0 0.0139177 -0.0111052 0 0.0172162 0.0045897
0 -0.0154877 0.00924127 0 -0.00451419 0.0174994 0 0.0045263 0.0175084 0
0.0155453 0.00928585 0 -0.0171658 0.00592954 0 -0.00597213 0.0171533 0 0.00598764
0.0171648 0 0.0172162 0.00596872 0 0.00639053 -0.0170872 0 -0.00637208 -0.0171018
0 -0.0171658 -0.00622243 0 0.0172162 -0.00618257 0 -0.002 0.0182418 0
0.002 0.0182418 0 -0.0154877 -0.00985753 0 0.0155453 -0.00981172 0 -0.00319452
0.0181891 0 0.00320133 0.0181941 0 -0.0154877 0.0101997 0 0.0155453 0.0102442
0 -0.0171658 0.00721136 0 0.0172162 0.00725047 0 -0.000719385 0.0187075 0
0.000719385 0.0187075 0 -0.00758282 0.0171264 0 0.00759938 0.0171387 0 -0.00597213
0.0178373 0 0.00598764 0.0178488 0 -0.00451419 0.0182994 0 0.0045263 0.0183083
0 -0.005 -0.0181922 0 0.005 -0.0181922 0 -0.018893 -0.00073496 0
-0.018893 0.0011094 0 0.0189314 -0.000704684 0 0.0189314 0.0011396 0 -0.0154877
0.0110905 0 -0.018893 -0.0027193 0 -0.018893 0.00282365 0 -0.0171658 0.00840275
0 0.0189314 -0.00268894 0 0.0155453 0.0111349 0 0.0189314 0.00285377 0
-0.00344538 -0.0188361 0 0.00344538 -0.0188361 0 -0.0171658 -0.00852385 0 0.0172162
0.00844179 0 0.0172162 -0.00848386 0 -0.00758282 0.0177113 0 0.00759938 0.0177235
0 -0.0122727 -0.0149021 0 0.0123323 -0.0148546 0 -0.00175719 -0.0192397 0
[...]
CELL_DATA 15677
FIELD attributes 1
U 3 15677 float
-0.304869 10.2652 0 0.190474 10.9192 0 -0.101143 9.44669 0 0.0315556 10.9901
0 0.118843 10.7323 0 -0.0119276 8.75841 0 0.0455263 11.0075 0
0.0144812 10.9815 0 0.0577115 10.472 0 0.0115299 8.22942 0 0.0466929
11.0122 0 0.0433868 11.0311 0 0.0260901 10.9287 0 0.0319062 10.1908
0 0.0113228 7.85623 0 0.0440095 11.0135 0 0.0424004 11.0439 0
0.0428036 11.0209 0 0.0332348 10.8604 0 0.0213698 9.90304 0 0.00644098
7.61207 0 0.0413741 11.0136 0 0.0404403 11.0462 0 0.0402034 11.0449
0 0.0398902 11.005 0 0.0328212 10.7693 0 0.0159513 9.63774 0
0.00250466 7.45892 0 0.0386328 11.0131 0 0.0389817 11.0453 0 0.0393769
11.0534 0 0.038498 11.0446 0 0.0358476 10.9827 0 0.0288571 10.6573
0 0.0121619 9.41263 0 0.000562447 7.36243 0 0.0356067 11.0123 0
0.0373638 11.0435 0 0.0387059 11.056 0 0.0384439 11.0588 0 0.0360485
11.0422 0 0.0318402 10.953 0 0.0240788 10.5328 0 0.0090211 9.23766
0 1.59478e-05 7.30032 0 0.0323243 11.0113 0 0.0354517 11.0411 0
0.0376141 11.0557 0 0.0378813 11.0641 0 0.0361155 11.0635 0 0.0329153
11.0366 0 0.0284202 10.9176 0 0.0194886 10.3983 0 0.00645929 9.10693
0 -0.000238083 7.25777 0 0.0288476 11.0101 0 0.033318 11.0382 0
0.0362137 11.054 0 0.0369333 11.0653 0 0.0355547 11.0718 0 0.0329613
11.0664 0 0.0298204 11.0291 0 0.0254152 10.8761 0 0.0154626 10.2696
0 0.00440476 9.0121 0 -0.000468965 7.23332 0 0.0252538 11.0089 0
0.0309858 11.0348 0 0.0345535 11.0514 0 0.0357122 11.0645 0 0.0346432
11.0747 0 0.0324068 11.0786 0 0.0297754 11.0689 0 0.0268331 11.0215
0 0.0222091 10.8308 0 0.0118408 10.1596 0 0.00266365 8.94621 0
-0.000672857 7.22181 0 0.0215416 11.0077 0 0.0284608 11.0312 0 0.0326256
11.0481 0 0.0342257 11.0623 0 0.0334424 11.0748 0 0.0314595 11.0834
0 0.0291135 11.0855 0 0.0266295 11.0726 0 0.0235458 11.0146 0
0.0185132 10.7849 0 0.00844525 10.0708 0 0.00109753 8.90419 0 -0.00108905
7.22385 0 0.0178336 11.0065 0 0.0258457 11.0273 0 0.0304162 11.0443
0 0.0324576 11.0593 0 0.0319562 11.0732 0 0.0301739 11.0846 0
0.0279791 11.0925 0 0.0257067 11.094 0 0.0231441 11.0787 0 0.0198587
11.0093 0 0.0143916 10.7413 0 0.00513559 10.0056 0 -0.000546743 8.88326
0 -0.00171011 7.23919 0 0.0146361 11.0053 0 0.023156 11.0233 0
0.0279516 11.0399 0 0.0303902 11.0554 0 0.0301757 11.0704 0 0.0285657
11.0836 0 0.0264431 11.095 0 0.0242131 11.1035 0 0.0218144 11.1052
0 0.0191209 11.0877 0 0.015667 11.0065 0 0.00991438 10.7055 0
0.00166004 9.96315 0 -0.00221783 8.88141 0 -0.00237741 7.26819 0 0.0120544
11.0043 0 0.0206062 11.0196 0 0.0252685 11.0351 0 0.02801 11.0509
0 0.0280847 11.0667 0 0.0266303 11.0813 0 0.0245308 11.0947 0
0.0222407 11.1072 0 0.0198035 11.1172 0 0.0172147 11.1199 0 0.0143752
11.1007 0 0.010767 11.0081 0 0.00502499 10.6804 0 -0.00192209 9.94248
0 -0.00410838 8.89788 0 -0.00320428 7.31098 0 0.00990007 11.0034 0
0.0183367 11.0164 0 0.0226626 11.0306 0 0.0253224 11.0457 0 0.0256633
11.0621 0 0.0243507 11.0777 0 0.0222396 11.0928 0 0.0198184 11.1077
0 0.0172187 11.1222 0 0.01451 11.1345 0 0.0117182 11.1389 0
0.00872202 11.1186 0 0.00506634 11.0158 0 -0.000339923 10.6687 0 -0.00578842
9.94256 0 -0.00619824 8.93166 0 -0.00412162 7.36776 0 0.00822639 11.0027
0 0.0163063 11.0136 0 0.0203072 11.0267 0 0.0226382 11.0407 0
0.0229008 11.0567 0 0.0217057 11.0732 0 0.0195536 11.0895 0 0.0169437
11.1061 0 0.0140872 11.1234 0 0.0111122 11.1408 0 0.00811825 11.1561
0 0.00512331 11.1631 0 0.00204899 11.1425 0 -0.00147032 11.0312 0
-0.00620906 10.6715 0 -0.009979 9.96246 0 -0.00849921 8.98269 0 -0.00511954
7.43832 0 0.00684167 11.0021 0 0.0144038 11.0113 0 0.0181424 11.0232
0 0.0201588 11.0362 0 0.0201011 11.0512 0 0.0186803 11.0677 0
0.0164531 11.0849 0 0.0136021 11.1029 0 0.0104039 11.1221 0 0.00704494
11.1427 0 0.00367588 11.1638 0 0.00039873 11.1831 0 -0.00272675 11.1934
0 -0.00572547 11.1734 0 -0.00886396 11.056 0 -0.01262 10.6902 0
-0.0145267 10.0012 0 -0.0109958 9.05017 0 -0.00618556 7.52246 0 0.00570329
11.0017 0 0.0127104 11.0093 0 0.0161198 11.0201 0 0.0178263 11.0322
0 0.0174861 11.0462 0 0.0156024 11.0619 0 0.0129245 11.0793 0
0.00977699 11.0983 0 0.00615344 11.119 0 0.00229819 11.1416 0 -0.00158824
11.1662 0 -0.00534844 11.192 0 -0.00883923 11.216 0 -0.0119509 11.2306
0 -0.0146574 11.2124 0 -0.0171432 11.0915 0 -0.0195877 10.725 0
-0.0194282 10.0582 0 -0.0136811 9.13365 0 -0.00730122 7.6195 0 0.00476857
11.0014 0 0.0111857 11.0078 0 0.0142605 11.0175 0 0.0156417 11.0285
0 0.0150072 11.0415 0 0.0127232 11.0563 0 0.00934845 11.0731 0
0.00546105 11.0924 0 0.00132215 11.1142 0 -0.00314688 11.1384 0 -0.00769194
11.1653 0 -0.0121031 11.1949 0 -0.016183 11.2261 0 -0.0197401 11.2559
0 -0.0226289 11.2756 0 -0.0247881 11.2604 0 -0.026309 11.1387 0
-0.0270978 10.7762 0 -0.0246645 10.1325 0 -0.0165315 9.23232 0 -0.00846713
7.72881 0 0.00402668 11.0011 0 0.00981439 11.0066 0 0.0125656 11.0152
0 0.0136128 11.0253 0 0.0126826 11.0373 0 0.00999734 11.0511 0
0.00601602 11.067 0 0.00112138 11.0857 0 -0.00408853 11.1078 0 -0.00930253
11.1332 0 -0.0146606 11.1618 0 -0.0198952 11.1939 0 -0.024758 11.2294
0 -0.0290045 11.2671 0 -0.0324114 11.3034 0 -0.0348161 11.3292 0
-0.0361202 11.3183 0 -0.0363317 11.1982 0 -0.035124 10.8435 0 -0.0302152
10.2234 0 -0.0195316 9.34547 0 -0.00966289 7.84961 0 0.0034575 11.001
0 0.00864457 11.0056 0 0.0110227 11.0133 0 0.0117459 11.0225 0
0.0105241 11.0334 0 0.0074519 11.0462 0 0.00287769 11.0611 0 -0.00289506
11.079 0 -0.00948824 11.1004 0 -0.0161571 11.1261 0 -0.0225067 11.1561
0 -0.0287602 11.1901 0 -0.0346115 11.2284 0 -0.039766 11.2706 0
-0.043949 11.3155 0 -0.0469267 11.3593 0 -0.0485236 11.392 0 -0.0486186
11.3865 0 -0.0471513 11.2704 0 -0.0436245 10.9266 0 -0.036041 10.3298
0 -0.0226402 9.472 0 -0.010858 7.98072 0 0.00301616 11.0008 0
0.00768685 11.0048 0 0.00967495 11.0117 0 0.01004 11.0199 0 0.00854122
11.0299 0 0.00510557 11.0416 0 -3.15182e-05 11.0555 0 -0.00664948 11.0723
0 -0.0144523 11.0928 0 -0.0229571 11.1177 0 -0.0312079 11.148 0
-0.0387132 11.1836 0 -0.0457928 11.2239 0 -0.052095 11.2693 0 -0.0572949
11.3192 0 -0.0611105 11.3722 0 -0.0633067 11.424 0 -0.0637154 11.4645
0 -0.0622121 11.4655 0 -0.0586872 11.3553 0 -0.0525342 11.0246 0
-0.0420702 10.4503 0 -0.0258078 9.61064 0 -0.012039 8.12089 0 0.00266773
11.0007 0 0.00689922 11.0043 0 0.00855422 11.0105 0 0.00855693 11.0178
0 0.00673873 11.0267 0 0.00297216 11.0373 0 -0.00268499 11.05 0
-0.0100985 11.0656 0 -0.0190589 11.085 0 -0.0291739 11.109 0 -0.0398024
11.1384 0 -0.0497208 11.1743 0 -0.0583232 11.2164 0 -0.0660602 11.2642
0 -0.0725503 11.3175 0 -0.0774632 11.3759 0 -0.0805237 11.4376 0
-0.0815201 11.4982 0 -0.0803103 11.5469 0 -0.0767881 11.5553 0 -0.0708202
11.4527 0 -0.0617453 11.1365 0 -0.0482448 10.5837 0 -0.028997 9.76007
0 -0.0131946 8.26878 0 0.00238833 11.0006 0 0.00624889 11.0038 0
0.00762825 11.0095 0 0.00733393 11.0161 0 0.00518804 11.0239 0 0.00106079
11.0334 0 -0.005063 11.0449 0 -0.0132072 11.0592 0 -0.0232548 11.0772
0 -0.034909 11.0999 0 -0.047628 11.1282 0 -0.0605627 11.1631 0
-0.0721586 11.2057 0 -0.0816932 11.2554 0 -0.0898103 11.3114 0 -0.0961256
11.3736 0 -0.100322 11.4412 0 -0.10216 11.5122 0 -0.101475 11.5819
0 -0.098179 11.6394 0 -0.0922156 11.6558 0 -0.0834278 11.5621 0
-0.0711511 11.2611 0 -0.0544924 10.7288 0 -0.0321718 9.9188 0 -0.0143042
8.42301 0 0.00216123 11.0006 0 0.00570771 11.0035 0 0.00685724 11.0087
0 0.00633078 11.0146 0 0.0039265 11.0216 0 -0.000551085 11.0299 0
-0.00715151 11.0401 0 -0.0159487 11.053 0 -0.026995 11.0694 0 -0.0400963
11.0905 0 -0.0548159 11.1174 0 -0.0704089 11.1511 0 -0.0857647 11.1925
0 -0.0989419 11.2428 0 -0.109123 11.3012 0 -0.117226 11.3664 0
-0.122891 11.4382 0 -0.125847 11.5155 0 -0.125921 11.5962 0 -0.123031
11.6755 0 -0.117162 11.7419 0 -0.108315 11.7667 0 -0.0963697 11.6827
0 -0.0806642 11.3971 0 -0.0607334 10.8839 0 -0.0352936 10.0853 0
-0.0153566 8.58212 0 0.00197447 11.0005 0 0.00525446 11.0032 0 0.00621149
11.008 0 0.00550415 11.0134 0 0.0029081 11.0196 0 -0.00183052 11.0269
0 -0.00886511 11.0357 0 -0.0183034 11.047 0 -0.0302441 11.0618 0
-0.0446786 11.0811 0 -0.0612841 11.1062 0 -0.079428 11.1382 0 -0.0981048
11.1782 0 -0.115895 11.2273 0 -0.130428 11.2864 0 -0.140836 11.3545
0 -0.148405 11.4297 0 -0.152837 11.5116 0 -0.153944 11.5992 0
-0.151654 11.6898 0 -0.145991 11.7786 0 -0.137046 11.854 0 -0.124901
11.8873 0 -0.109483 11.8135 0 -0.090171 11.5431 0 -0.0668935 11.0474
0 -0.0383296 10.258 0 -0.0163537 8.7447 0 0.00181932 11.0004 0
0.00487249 11.0029 0 0.0056675 11.0075 0 0.00482031 11.0124 0 0.00208486
11.018 0 -0.00283362 11.0243 0 -0.0101781 11.0319 0 -0.0201749 11.0414
0 -0.0329748 11.0543 0 -0.0486091 11.0717 0 -0.0669596 11.0947 0
-0.0875173 11.1246 0 -0.109393 11.1628 0 -0.131266 11.2104 0 -0.151377
11.2682 0 -0.166899 11.3372 0 -0.176972 11.4158 0 -0.183356 11.5017
0 -0.18586 11.5944 0 -0.184426 11.6923 0 -0.179123 11.7929 0
-0.170114 11.891 0 -0.157599 11.9751 0 -0.141775 12.017 0 -0.122614
11.9532 0 -0.0995604 11.6976 0 -0.0729105 11.2177 0 -0.0412594 10.4353
0 -0.0172112 8.90965 0 0.00168928 11.0004 0 0.0045487 11.0027 0
0.00520659 11.007 0 0.0042523 11.0116 0 0.00141819 11.0166 0 -0.00361714
11.0222 0 -0.0111628 11.0286 0 -0.0215482 11.0366 0 -0.0350761 11.0474
0 -0.0518511 11.0624 0 -0.0717813 11.0831 0 -0.0945839 11.1106 0
-0.119501 11.1464 0 -0.145326 11.1919 0 -0.170383 11.2481 0 -0.192556
11.3158 0 -0.20854 11.3958 0 -0.217549 11.4857 0 -0.221962 11.5829
0 -0.221752 11.6864 0 -0.217036 11.7948 0 -0.208053 11.9052 0
-0.195122 12.0124 0 -0.17858 12.1048 0 -0.158732 12.1547 0 -0.135621
12.1008 0 -0.108733 11.8591 0 -0.0787411 11.3932 0 -0.0440146 10.616
0 -0.0185235 9.07419 0 0.00157946 11.0004 0 0.00427268 11.0026 0
0.0048137 11.0066 0 0.00377856 11.0109 0 0.000877136 11.0154 0 -0.00422689
11.0203 0 -0.0118902 11.0258 0 -0.0225189 11.0324 0 -0.0365464 11.0412
0 -0.0542726 11.0536 0 -0.0756998 11.0715 0 -0.100549 11.0963 0
-0.128311 11.1293 0 -0.157913 11.1721 0 -0.187782 11.226 0 -0.215866
11.2921 0 -0.23966 11.3708 0 -0.255389 11.4626 0 -0.262461 11.5645
0 -0.264013 11.6733 0 -0.260239 11.7879 0 -0.251464 11.9064 0
-0.238131 12.0262 0 -0.220728 12.1419 0 -0.199738 12.242 0 -0.175579
12.2994 0 -0.148362 12.2548 0 -0.117616 12.0259 0 -0.0843143 11.5725
0 -0.0472271 10.7978 0 -0.0197509 9.26804 0 0.00148605 11.0003 0
0.00403619 11.0024 0 0.004479 11.0063 0 0.00338172 11.0102 0 0.000436955
11.0144 0 -0.00469951 11.0187 0 -0.0124174 11.0233 0 -0.0231782 11.0288
0 -0.0375128 11.0358 0 -0.0558885 11.0458 0 -0.078555 11.0604 0
-0.105346 11.0818 0 -0.135722 11.1117 0 -0.16888 11.1513 0 -0.203379
11.2023 0 -0.237244 11.266 0 -0.267995 11.343 0 -0.29278 11.4336
0 -0.307371 11.5381 0 -0.311499 11.6525 0 -0.309209 11.773 0
-0.300967 11.8984 0 -0.287343 12.0269 0 -0.269004 12.1554 0 -0.246624
12.2788 0 -0.220822 12.3858 0 -0.192126 12.45 0 -0.160728 12.4138
0 -0.126119 12.1968 0 -0.0900142 11.7536 0 -0.0500544 11.001 0
-0.0200732 9.46725 0 0.00140603 11.0003 0 0.00383274 11.0023 0 0.00419054
11.006 0 0.00304771 11.0097 0 7.78931e-05 11.0135 0 -0.0050642 11.0173
0 -0.0127899 11.0212 0 -0.0235994 11.0256 0 -0.0380939 11.0311 0
-0.0568669 11.0389 0 -0.0803805 11.0505 0 -0.108777 11.0679 0 -0.141644
11.0937 0 -0.178096 11.1298 0 -0.216986 11.1772 0 -0.256448 11.2377
0 -0.294053 11.3123 0 -0.326918 11.4015 0 -0.351872 11.5049 0
-0.364276 11.6225 0 -0.364329 11.7497 0 -0.357143 11.882 0 -0.343504
12.0178 0 -0.324258 12.1555 0 -0.300307 12.292 0 -0.272504 12.4222
0 -0.241595 12.5352 0 -0.208218 12.6052 0 -0.172595 12.5767 0
-0.134445 12.3697 0 -0.0954313 11.9561 0 -0.0518968 11.2239 0 -0.0204749
9.66203 0 0.00133695 11.0003 0 0.00365712 11.0022 0 0.00394118 11.0058
0 0.00276684 11.0093 0 -0.000215888 11.0128 0 -0.00534415 11.0161 0
-0.0130439 11.0194 0 -0.0238406 11.0228 0 -0.0383847 11.027 0 -0.0573617
11.0328 0 -0.0813959 11.0417 0 -0.110897 11.0554 0 -0.145831 11.0764
0 -0.185445 11.1077 0 -0.228436 11.151 0 -0.273248 11.2076 0
-0.317535 11.2788 0 -0.358418 11.3656 0 -0.392634 11.4679 0 -0.416738
11.5849 0 -0.425747 11.7162 0 -0.420499 11.8562 0 -0.407328 11.9997
0 -0.387374 12.1455 0 -0.361777 12.2915 0 -0.33167 12.4351 0
-0.298073 12.5712 0 -0.261851 12.689 0 -0.223696 12.764 0 -0.184031
12.7416 0 -0.14279 12.5635 0 -0.100247 12.179 0 -0.0539144 11.4429
0 -0.0209052 9.85029 0 0.00127744 11.0003 0 0.00350476 11.0021 0
0.00372592 11.0055 0 0.00252875 11.0089 0 -0.000456871 11.0121 0 -0.00555777
11.0151 0 -0.0132077 11.0178 0 -0.0239476 11.0204 0 -0.0384602 11.0233
0 -0.0574963 11.0275 0 -0.0818005 11.0339 0 -0.111988 11.0442 0
-0.148358 11.0607 0 -0.190614 11.0862 0 -0.237577 11.124 0 -0.287431
11.176 0 -0.33816 11.2431 0 -0.386924 11.3264 0 -0.430396 11.4264
0 -0.464971 11.5427 0 -0.487014 11.6739 0 -0.491294 11.819 0
-0.479464 11.9715 0 -0.459216 12.1259 0 -0.432073 12.2807 0 -0.399463
12.4342 0 -0.362737 12.5838 0 -0.323068 12.7245 0 -0.281386 12.8462
0 -0.238514 12.9246 0 -0.195738 12.9268 0 -0.150708 12.7773 0
-0.104854 12.3987 0 -0.0558542 11.6555 0 -0.0212633 10.0307 0 0.00337149
11.0021 0 0.00120553 11.0003 0 0.00353838 11.0054 0 0.00232603 11.0085
0 -0.000655082 11.0115 0 -0.00571958 11.0142 0 -0.0133036 11.0164 0
-0.0239562 11.0182 0 -0.0383793 11.0202 0 -0.0573682 11.0227 0 -0.0817536
11.027 0 -0.112306 11.0342 0 -0.149584 11.0466 0 -0.193697 11.0666
0 -0.244011 11.0977 0 -0.298803 11.1433 0 -0.35566 11.2054 0
-0.412088 11.2842 0 -0.464736 11.3809 0 -0.509858 11.4953 0 -0.543579
11.6264 0 -0.56219 11.7721 0 -0.560317 11.9308 0 -0.540601 12.0954
0 -0.512221 12.2598 0 -0.477081 12.4227 0 -0.436885 12.5826 0
-0.393178 12.7369 0 -0.347234 12.8813 0 -0.300067 13.0054 0 -0.25389
13.105 0 -0.207189 13.1311 0 -0.15792 12.9884 0 -0.109026 12.6129
0 -0.0575133 11.8601 0 -0.0215307 10.2027 0 0.00337212 11.0052 0
0.00321494 11.002 0 0.00111858 11.0002 0 0.0021518 11.0082 0 -0.000818502
11.011 0 -0.00584075 11.0134 0 -0.013349 11.0151 0 -0.0238941 11.0164
0 -0.038188 11.0174 0 -0.0570535 11.0186 0 -0.0813814 11.0209 0
-0.112056 11.0254 0 -0.149832 11.034 0 -0.195143 11.049 0 -0.247847
11.0735 0 -0.306854 11.1112 0 -0.369786 11.1661 0 -0.433579 11.2396
0 -0.495232 11.3318 0 -0.550901 11.443 0 -0.596484 11.5727 0
-0.627943 11.719 0 -0.64162 11.8793 0 -0.632113 12.0514 0 -0.603232
12.2273 0 -0.565733 12.4007 0 -0.521885 12.5705 0 -0.473639 12.7355
0 -0.42268 12.8936 0 -0.370366 13.04 0 -0.3196 13.184 0
-0.26921 13.3042 0 -0.217504 13.3331 0 -0.164374 13.1946 0 -0.112604
12.8197 0 -0.0588806 12.0558 0 -0.0217 10.3659 0 0.00199675 11.0079
0 0.00318934 11.005 0 0.00301712 11.0019 0 0.00103523 11.0002 4.29426e-19
-0.000955021 11.0106 0 -0.00592989 11.0127 0 -0.013357 11.014 0 -0.0237828
11.0147 0 -0.0379213 11.0149 0 -0.0566111 11.0149 0 -0.080782 11.0155
0 -0.111399 11.0176 0 -0.149364 11.0228 0 -0.195359 11.0333 0
-0.249638 11.0517 0 -0.311698 11.0817 0 -0.379888 11.1274 0 -0.451079
11.193 0 -0.521478 11.2795 0 -0.587598 11.3863 0 -0.645152 11.5132
0 -0.689773 11.6589 0 -0.71739 11.8208 0 -0.72454 11.9954 0
-0.705916 12.1802 0 -0.666653 12.3665 0 -0.619146 12.5477 0 -0.565998
12.7232 0 -0.509346 12.8922 0 -0.450973 13.0523 0 -0.394673 13.2183
0 -0.339313 13.3814 0 -0.282976 13.5011 0 -0.226724 13.5307 0
-0.169959 13.3941 0 -0.115611 13.0181 0 -0.0599747 12.2421 0 -0.0217746
10.5199 0 -0.00107937 11.0102 0 0.0018445 11.0076 0 0.00297284 11.0047
1.88003e-18 0.0028254 11.0017 -1.35962e-18 0.000955057 11.0002 -8.71515e-19 -0.0059954 11.0121 0
-0.0133372 11.0131 0 -0.0236382 11.0133 0 -0.0376063 11.0127 0 -0.0560862
11.0117 0 -0.0800314 11.0107 0 -0.110461 11.0107 0 -0.148385 11.0129
0 -0.194673 11.0192 0 -0.249889 11.0322 0 -0.314008 11.055 0
-0.386069 11.0916 0 -0.463761 11.1468 0 -0.543072 11.2246 0 -0.619455
11.3258 0 -0.688989 11.4485 0 -0.747023 11.592 0 -0.78905 11.7541
0 -0.811113 11.9315 0 -0.810097 12.1201 0 -0.780912 12.3167 0
-0.730151 12.5122 0 -0.67188 12.6999 0 -0.608963 12.8799 0 -0.54367
13.0511 0 -0.48081 13.2308 0 -0.419417 13.4155 0 -0.357069 13.5767
0 -0.295266 13.694 0 -0.234759 13.7221 0 -0.1747 13.5859 0
-0.11809 13.2076 0 -0.0608213 12.4186 0 -0.0217671 10.6647 0 -0.0060594
11.0115 0 -0.00116301 11.0097 -3.80575e-18 0.00167563 11.0072 -1.97954e-18 0.00276221 11.0045
9.54414e-19 0.00263703 11.0016 -9.19423e-19 0.000878114 11.0002 0 -0.0132985 11.0123 0
-0.0234712 11.012 0 -0.0372627 11.0108 0 -0.0555132 11.0088 0 -0.0791876
11.0065 0 -0.10934 11.0046 0 -0.147055 11.0041 0 -0.193343 11.0067
0 -0.249006 11.0147 0 -0.3144 11.0309 0 -0.389133 11.0592 0
-0.471695 11.1039 0 -0.55897 11.17 0 -0.645974 11.2617 0 -0.727406
11.3789 0 -0.799 11.5188 0 -0.855856 11.6797 0 -0.893476 11.8585
0 -0.908183 12.0511 0 -0.89737 12.2528 0 -0.85627 12.4602 0
-0.793035 12.6635 0 -0.723389 12.8564 0 -0.650371 13.0391 0 -0.579983
13.2301 0 -0.511378 13.4284 0 -0.441781 13.6106 0 -0.372934 13.768
0 -0.306022 13.881 0 -0.241628 13.9063 0 -0.178655 13.7694 0
-0.120087 13.3877 0 -0.0614509 12.5853 0 -0.0216918 10.8004 0 -0.0132733
11.0115 0 -0.00602795 11.0109 8.00983e-18 -0.00121325 11.0091 0 0.00151362 11.0068
2.00835e-18 0.00255869 11.0042 5.89233e-22 0.00245261 11.0015 0 0.000804395 11.0002 0
-0.023291 11.0109 0 -0.0369033 11.0091 0 -0.0549168 11.0063 0 -0.0782945
11.0028 0 -0.108111 10.9992 0 -0.1455 10.9963 0 -0.191573 10.9956
0 -0.247314 10.9991 0 -0.313375 11.0094 0 -0.389828 11.0299 0
-0.475829 11.0648 0 -0.569173 11.1191 0 -0.665837 11.1978 0 -0.759789
11.3051 0 -0.84501 11.4398 0 -0.917021 11.5978 0 -0.970817 11.7765
0 -1.00209 11.9719 0 -1.0076 12.1793 0 -0.985406 12.3931 0
-0.931163 12.6097 0 -0.854649 12.8194 0 -0.773176 13.0158 0 -0.694324
13.2186 0 -0.617368 13.4284 0 -0.539112 13.624 0 -0.461791 13.8018
0 -0.386877 13.9537 0 -0.315267 14.0612 0 -0.24741 14.0827 0
-0.181891 13.9439 0 -0.121655 13.5581 0 -0.0618937 12.742 0 -0.0215614
10.9271 0 -0.0231452 11.0099 0 -0.0130757 11.0106 4.80407e-22 -0.00587845 11.0101
0 -0.00126132 11.0085 -2.11344e-18 0.00136053 11.0064 4.24186e-22 0.00236243 11.004 0
0.0022722 11.0014 0 0.000733888 11.0001 0 -0.0365378 11.0076 0 -0.0543123
11.0041 0 -0.0773836 10.9996 0 -0.106828 10.9944 0 -0.143814 10.9894
0 -0.189521 10.9858 0 -0.245066 10.9852 0 -0.311334 10.9901 0
-0.388759 11.0035 0 -0.477053 11.0295 0 -0.574783 11.0725 0 -0.67894
11.138 0 -0.784493 11.231 0 -0.884307 11.3555 0 -0.971729 11.5089
0 -1.04224 11.6858 0 -1.09092 11.8825 0 -1.11382 12.0943 0
-1.10832 12.3154 0 -1.07326 12.54 0 -1.0048 12.7646 0 -0.91438
12.9788 0 -0.826187 13.1959 0 -0.739753 13.418 0 -0.651418 13.6251
0 -0.563987 13.816 0 -0.479435 13.9876 0 -0.398936 14.1328 0
-0.3231 14.234 0 -0.252195 14.2508 0 -0.184479 14.1094 0 -0.122843
13.7188 0 -0.0621761 12.8889 0 -0.0213871 11.0451 0 -0.0362344 11.0063
0 -0.0227204 11.0088 -4.42964e-18 -0.012632 11.0096 0 -0.00573353 11.0093 0
-0.0012961 11.008 6.42897e-18 0.00121626 11.006 0 0.00217327 11.0038 0 0.00209596
11.0013 1.91587e-18 0.000666599 11.0001 0 -0.0537098 11.0022 0 -0.0764732 10.9967
0 -0.105534 10.9902 0 -0.142068 10.9833 0 -0.187306 10.9771 0
-0.242462 10.9729 0 -0.308591 10.9729 0 -0.386418 10.98 0 -0.476098
10.9976 0 -0.576849 11.0303 0 -0.68654 11.083 0 -0.80125 11.1614
0 -0.914855 11.2704 0 -1.01909 11.4137 0 -1.10681 11.5869 0
-1.17369 11.7832 0 -1.21505 11.9978 0 -1.22753 12.2252 0 -1.20929
12.4589 0 -1.16004 12.693 0 -1.07646 12.9234 0 -0.978183 13.1594
0 -0.881164 13.3964 0 -0.78127 13.616 0 -0.682036 13.8183 0
-0.585993 14.0027 0 -0.494765 14.167 0 -0.40922 14.3046 0 -0.329635
14.3988 0 -0.256082 14.4103 0 -0.186492 14.2655 0 -0.123702 13.8698
0 -0.0623233 13.0263 0 -0.0211794 11.1548 0 -0.0532062 11.0004 0
-0.0355068 11.0048 0 -0.0218649 11.0074 -4.84088e-18 -0.0122048 11.0086 -4.6718e-18 -0.00556923
11.0086 -9.01161e-18 -0.00131753 11.0074 0 0.00108088 11.0056 -4.18532e-18 0.00199144 11.0035
-4.0311e-18 0.00192386 11.0013 1.94017e-18 0.000602385 11.0001 0 -0.0755742 10.9941 0
-0.104249 10.9864 0 -0.140314 10.9779 0 -0.18502 10.9693 0 -0.239651
10.9619 0 -0.305393 10.9576 0 -0.383191 10.9589 0 -0.473556 10.969
0 -0.576238 10.9921 0 -0.689858 11.033 0 -0.811476 11.0971 0