# vtk DataFile Version 2.0
sampleSurface
ASCII
DATASET POLYDATA
POINTS 15978 float
-4.26165e-19 0.000133477 0 -4.18079e-19 -0.000798814 0 -4.33681e-19 0.001 0 -4.09379e-19 -0.00180187
0 -0.00181681 0.000361473 0 0.00181681 0.000361473 0 -0.00181396 -0.000575145 0
0.00181396 -0.000575145 0 -0.00181945 0.00123202 0 0.00181945 0.00123202 0 -0.00181089
-0.00158285 0 0.00181089 -0.00158285 0 -4.00018e-19 -0.00288105 0 -0.00180759 -0.00266704
0 0.00180759 -0.00266704 0 -0.00351565 8.15481e-05 0 0.00351565 8.15481e-05 0
-0.00351186 -0.000939823 0 0.00351186 -0.000939823 0 -0.00351918 0.00103087 0 0.00351918
0.00103087 0 -0.00352245 0.00191322 0 0.00352245 0.00191322 0 -3.89947e-19 -0.00404214
0 -0.00350777 -0.00203871 0 0.00350777 -0.00203871 0 -0.00180405 -0.00383352 0
0.00180405 -0.00383352 0 -0.00350338 -0.00322101 0 0.00350338 -0.00322101 0 -0.005
8.60602e-05 0 0.005 8.60602e-05 0 -0.005 -0.00103629 0 0.005 -0.00103629
0 -0.005 0.00112923 0 0.005 0.00112923 0 -3.79112e-19 -0.00529135 0
-0.00180023 -0.00508853 0 0.00180023 -0.00508853 0 -0.005 0.00209882 0 0.005
0.00209882 0 -0.005 -0.00224382 0 0.005 -0.00224382 0 -0.00349866 -0.00449304
0 0.00349866 -0.00449304 0 -0.005 0.003 0 0.005 0.003 0
-0.005 -0.003543 0 0.005 -0.003543 0 -0.00637208 2.82617e-05 0 0.00639053
4.25732e-05 0 -0.00637208 0.00114892 0 -0.00637208 -0.00117745 0 0.00639053 -0.00116311
0 0.00639053 0.00116321 0 -3.67455e-19 -0.00663538 0 -0.00179612 -0.00643879 0
0.00179612 -0.00643879 0 -0.00637208 0.00219052 0 0.00639053 0.00220479 0 -0.00349357
-0.00586162 0 0.00349357 -0.00586162 0 -0.00637208 -0.00247467 0 0.00639053 -0.00246031
0 -0.005 -0.00494079 0 0.005 -0.00494079 0 -0.00637208 0.00315864 0
0.00639053 0.00317289 0 -0.00637208 -0.00387036 0 0.00639053 -0.00385597 0 -0.00637208
0.00405846 0 0.00639053 0.00407269 0 -0.00778421 -7.99569e-05 0 0.00781802 -5.3679e-05
0 -0.00778421 0.00112388 0 0.00781802 0.00115011 0 -0.00778421 -0.00137517 0
0.00781802 -0.00134884 0 -3.54912e-19 -0.00808142 0 -0.0017917 -0.00789154 0 0.0017917
-0.00789154 0 -0.00778421 0.0022428 0 -0.0034881 -0.00733407 0 0.0034881 -0.00733407
0 0.00781802 0.00226899 0 -0.005 -0.00644467 0 0.005 -0.00644467 0
-0.00778421 -0.00276868 0 0.00781802 -0.0027423 0 -0.00637208 -0.00537197 0 0.00639053
-0.00535755 0 -0.00778421 0.00328278 0 0.00781802 0.00330893 0 -0.00778421 0.00424939
0 -0.00778421 -0.00426796 0 0.00781802 -0.00424152 0 0.00781802 0.00427551 0
-0.00923755 -0.000243565 0 0.00928347 -0.000207818 0 -0.00923755 0.00104957 0 -0.00778421
0.00514782 0 0.00928347 0.00108525 0 0.00781802 0.0051739 0 -0.00923755 -0.00163485
0 0.00928347 -0.00159903 0 -0.00637208 -0.00698755 0 0.00639053 -0.0069731 0
-0.005 -0.0080627 0 0.005 -0.0080627 0 -0.00923755 0.00225148 0 0.00928347
0.0022871 0 -0.00348222 -0.00891827 0 0.00348222 -0.00891827 0 -0.00178695 -0.00945455
0 0.00178695 -0.00945455 0 -3.41418e-19 -0.00963721 0 -0.00923755 -0.00313172 0
-0.00778421 -0.00588103 0 0.00781802 -0.00585453 0 0.00928347 -0.00309583 0 -0.00923755
0.0033686 0 0.00928347 0.00340416 0 -0.00923755 0.00440692 0 0.00928347 0.00444243
0 -0.00923755 -0.00474221 0 0.00928347 -0.00470623 0 -0.00923755 0.00537198 0
-0.0107333 -0.000467921 0 0.00928347 0.00540745 0 -0.0107333 0.000921062 0 0.0107879
-0.000425364 0 0.00639053 -0.00871127 0 -0.00637208 -0.00872575 0 0.0107879 0.000963535
0 -0.00778421 -0.00761653 0 0.00781802 -0.00758997 0 -0.0107333 -0.00196233 0
0.0107879 -0.00191968 0 -0.0107333 0.00221206 0 -0.005 -0.00980352 0 0.005
-0.00980352 0 0.0107879 0.00225445 0 -0.00923755 0.00626897 0 -0.00347589 -0.0106227
0 0.00347589 -0.0106227 0 0.00928347 0.00630439 0 -0.0107333 0.00341198 0
-0.00178183 -0.0111362 0 0.00178183 -0.0111362 0 -0.00923755 -0.00647493 0 0.00928347
-0.00643887 0 -3.26899e-19 -0.0113111 0 -0.0107333 -0.00357015 0 0.0107879 0.00345431
0 0.0107879 -0.00352741 0 -0.0107333 0.00452726 0 0.0107879 0.00456952 0
-0.0107333 -0.00530001 0 0.0107879 -0.00525717 0 -0.0107333 0.00556386 0 0.0107879
0.00560606 0 -0.000743369 0.0122055 0 0.000743369 0.0122055 0 -0.00778421 -0.00948375
0 0.00781802 -0.00945713 0 -0.0122727 0.000733061 0 -0.0122727 -0.000758799 0
0.0123323 -0.000712262 0 0.0123323 0.0007795 0 0.00639053 -0.0105814 0 -0.00637208
-0.0105959 0 -0.00923755 -0.00833916 0 -0.0122727 0.00211968 0 0.00928347 -0.00830301
0 -0.0122727 -0.00236389 0 0.0123323 0.00216603 0 0.0123323 -0.00231725 0
-0.0107333 0.00652734 0 0.0107879 0.00656947 0 -0.005 -0.0116765 0 0.005
-0.0116765 0 -0.0122727 0.00340848 0 0.0123323 0.00345474 0 -0.000741126 0.0128136
0 0.000741126 0.0128136 0 -0.0107333 -0.00716117 0 0.0107879 -0.00711821 0
-0.00346908 -0.0124565 0 0.00346908 -0.0124565 0 -0.0122727 -0.00409081 0 0.0123323
-0.00404405 0 -0.0107333 0.00742284 0 -0.00177633 -0.0129455 0 0.00177633 -0.0129455
0 -0.0122727 0.00460636 0 -3.11279e-19 -0.013112 0 0.0107879 0.00746492 0
-0.002 0.013 0 0.002 0.013 0 0.0123323 0.00465255 0 -0.0007387
0.0134712 0 0.0007387 0.0134712 0 -0.0122727 0.00571974 0 0.0123323 0.00576585
0 -0.0122727 -0.00594879 0 0.0123323 -0.00590191 0 -0.002 0.0135849 0
0.002 0.0135849 0 -0.0138571 0.000479853 0 -0.00923755 -0.0103449 0 0.00928347
-0.0103086 0 0.00781802 -0.011466 0 -0.00778421 -0.0114927 0 -0.0138571 -0.00112242
0 0.0139177 0.000527252 0 0.0139177 -0.00107491 0 -0.0138571 0.0019691 0
-0.0122727 0.00675458 0 0.0139177 0.00201639 0 0.0123323 0.00680062 0 -0.0107333
-0.00916358 0 0.00639053 -0.0125934 0 0.0107879 -0.0091205 0 -0.00637208 -0.012608
0 -0.0138571 -0.0028463 0 0.0139177 -0.00279868 0 -0.000736077 0.0141824 0
0.000736077 0.0141824 0 -0.00319452 0.0138829 0 0.00320133 0.0138879 0 -0.0138571
0.00335328 0 0.0139177 0.00340049 0 -0.002 0.0142174 0 0.002 0.0142174
0 -0.0122727 0.00771641 0 0.0123323 0.00776239 0 -0.005 -0.0136916 0
0.005 -0.0136916 0 -0.0138571 0.00463982 0 -0.0122727 -0.0079478 0 -0.0138571
-0.00470103 0 0.0123323 -0.00790078 0 0.0139177 -0.00465328 0 0.0139177 0.00468694
0 -0.00319452 0.0144678 0 0.00320133 0.0144728 0 -0.00346175 -0.0144295 0
0.00346175 -0.0144295 0 -0.00073324 0.0149515 0 0.00073324 0.0149515 0 -0.0122727
0.00861039 0 -0.00177041 -0.0148921 0 0.00177041 -0.0148921 0 -0.002 0.0149014
0 0.002 0.0149014 0 -0.0138571 0.0058356 0 -2.94473e-19 -0.0150496 0
0.0123323 0.00865631 0 0.0139177 0.00588264 0 -0.0138571 -0.00669653 0 0.0139177
-0.00664864 0 -0.00319452 0.0151003 0 0.00320133 0.0151053 0 -0.0154877 0.000155282
0 -0.0138571 0.00694702 0 -0.00451419 0.0148583 0 0.0045263 0.0148673 0
0.00928347 -0.0124665 0 -0.00923755 -0.0125028 0 0.0155453 0.000200444 0 -0.0154877
-0.00156548 0 0.0139177 0.00699399 0 -0.0154877 0.00175466 0 -0.0107333 -0.011318
0 0.0107879 -0.0112748 0 0.0155453 -0.00152021 0 0.0155453 0.00179972 0
0.00781802 -0.0136273 0 -0.00778421 -0.0136541 0 -0.002 0.0156411 0 0.002
0.0156411 0 -0.000730172 0.0157833 0 0.000730172 0.0157833 0 -0.0154877 0.0032412
0 -0.0154877 -0.00341685 0 0.0155453 0.00328617 0 -0.0122727 -0.0100985 0
0.0155453 -0.00337146 0 0.0123323 -0.0100514 0 -0.0138571 0.00798004 0 0.0139177
0.00802694 0 0.00639053 -0.0147581 0 -0.00637208 -0.0147727 0 -0.00451419 0.0154432
0 0.0045263 0.0154521 0 -0.00319452 0.0157843 0 0.00320133 0.0157893 0
-0.0154877 0.00462288 0 0.0155453 0.00466776 0 -0.0154877 -0.00540874 0 -0.0138571
-0.00884348 0 0.0155453 -0.00536322 0 0.0139177 -0.00879545 0 -0.0138571 0.00894019
0 -0.002 0.0164411 0 0.002 0.0164411 0 0.0139177 0.00898702 0
-0.0154877 0.00590709 0 -0.005 -0.0158596 0 0.005 -0.0158596 0 0.0155453
0.00595189 0 -0.00451419 0.0160757 0 -0.000726854 0.0166828 0 0.000726854 0.0166828
0 0.0045263 0.0160846 0 -0.00319452 0.016524 0 0.00320133 0.016529 0
-0.00345386 -0.0165523 0 0.00345386 -0.0165523 0 -0.0138571 0.0098326 0 -0.00597213
0.0159359 0 0.00598764 0.0159474 0 -0.0154877 0.00710071 0 0.0139177 0.00987937
0 -0.00176404 -0.0169864 0 0.00176404 -0.0169864 0 0.0155453 0.00714543 0
-2.76391e-19 -0.0171343 0 -0.0171658 -0.000247278 0 0.0172162 -0.000207752 0 -0.0171658
0.00147028 0 -0.0154877 -0.0075518 0 0.0155453 -0.00750615 0 0.0172162 0.00150971
0 -0.0171658 -0.00209519 0 0.0172162 -0.00205556 0 0.0107879 -0.0135925 0
-0.0107333 -0.0136359 0 -0.00451419 0.0167597 0 0.0045263 0.0167686 0 -0.002
0.0173062 0 0.002 0.0173062 0 -0.0171658 0.00306667 0 -0.0122727 -0.0124125
0 0.00928347 -0.0147881 0 0.0123323 -0.0123652 0 -0.00923755 -0.0148246 0
0.0172162 0.00310601 0 -0.0154877 0.00821012 0 -0.00597213 0.0165208 0 0.00598764
0.0165323 0 0.0155453 0.00825477 0 -0.00319452 0.017324 0 0.00320133 0.017329
0 -0.0171658 -0.00408336 0 -0.000723266 0.0176555 0 0.000723266 0.0176555 0
0.0172162 -0.00404362 0 -0.0171658 0.00455044 0 0.00781802 -0.0159527 0 -0.00778421
-0.0159796 0 -0.0138571 -0.0111534 0 0.0139177 -0.0111052 0 0.0172162 0.0045897
0 -0.0154877 0.00924127 0 -0.00451419 0.0174994 0 0.0045263 0.0175084 0
0.0155453 0.00928585 0 -0.0171658 0.00592954 0 -0.00597213 0.0171533 0 0.00598764
0.0171648 0 0.0172162 0.00596872 0 0.00639053 -0.0170872 0 -0.00637208 -0.0171018
0 -0.0171658 -0.00622243 0 0.0172162 -0.00618257 0 -0.002 0.0182418 0
0.002 0.0182418 0 -0.0154877 -0.00985753 0 0.0155453 -0.00981172 0 -0.00319452
0.0181891 0 0.00320133 0.0181941 0 -0.0154877 0.0101997 0 0.0155453 0.0102442
0 -0.0171658 0.00721136 0 0.0172162 0.00725047 0 -0.000719385 0.0187075 0
0.000719385 0.0187075 0 -0.00758282 0.0171264 0 0.00759938 0.0171387 0 -0.00597213
0.0178373 0 0.00598764 0.0178488 0 -0.00451419 0.0182994 0 0.0045263 0.0183083
0 -0.005 -0.0181922 0 0.005 -0.0181922 0 -0.018893 -0.00073496 0
-0.018893 0.0011094 0 0.0189314 -0.000704684 0 0.0189314 0.0011396 0 -0.0154877
0.0110905 0 -0.018893 -0.0027193 0 -0.018893 0.00282365 0 -0.0171658 0.00840275
0 0.0189314 -0.00268894 0 0.0155453 0.0111349 0 0.0189314 0.00285377 0
-0.00344538 -0.0188361 0 0.00344538 -0.0188361 0 -0.0171658 -0.00852385 0 0.0172162
0.00844179 0 0.0172162 -0.00848386 0 -0.00758282 0.0177113 0 0.00759938 0.0177235
0 -0.0122727 -0.0149021 0 0.0123323 -0.0148546 0 -0.00175719 -0.0192397 0
[...]
CELL_DATA 15677
FIELD attributes 1
U 3 15677 float
-0.304871 10.2652 0 0.190474 10.9192 0 -0.101144 9.44672 0 0.0315569 10.9901
0 0.118838 10.7323 0 -0.01193 8.75855 0 0.0455271 11.0075 0
0.0144724 10.9815 0 0.0577034 10.4721 0 0.0115257 8.2297 0 0.0466943
11.0122 0 0.0433773 11.0311 0 0.0260779 10.9288 0 0.0318956 10.1911
0 0.0113175 7.85669 0 0.0440123 11.0135 0 0.0423864 11.0439 0
0.0427857 11.021 0 0.0332155 10.8606 0 0.0213567 9.90348 0 0.00643493
7.61273 0 0.0413784 11.0135 0 0.0404242 11.0461 0 0.0401793 11.0449
0 0.0398624 11.0052 0 0.0327949 10.7697 0 0.0159356 9.63842 0
0.0024971 7.45978 0 0.0386385 11.0131 0 0.0389628 11.0453 0 0.0393459
11.0534 0 0.0384605 11.0448 0 0.0358102 10.9831 0 0.0288282 10.6579
0 0.012146 9.41355 0 0.000553643 7.36351 0 0.0356141 11.0123 0
0.0373404 11.0435 0 0.0386663 11.0561 0 0.0383963 11.059 0 0.0359979
11.0426 0 0.0317939 10.9535 0 0.0240447 10.5337 0 0.0090041 9.23884
0 7.4505e-06 7.30162 0 0.0323339 11.0113 0 0.0354244 11.0411 0
0.0375653 11.0558 0 0.0378218 11.0643 0 0.0360508 11.0638 0 0.0328538
11.0371 0 0.0283677 10.9184 0 0.0194519 10.3994 0 0.00643985 9.10836
0 -0.000247189 7.2593 0 0.0288598 11.0101 0 0.0332858 11.0382 0
0.0361549 11.0541 0 0.0368599 11.0655 0 0.0354739 11.0722 0 0.0328819
11.0669 0 0.029749 11.0299 0 0.0253569 10.8771 0 0.0154238 10.2711
0 0.00438346 9.01378 0 -0.000478724 7.23507 0 0.0252673 11.0089 0
0.0309478 11.0348 0 0.0344832 11.0515 0 0.035623 11.0646 0 0.0345436
11.075 0 0.032307 11.0791 0 0.0296829 11.0697 0 0.026753 11.0225
0 0.0221466 10.8321 0 0.0117998 10.1613 0 0.00264036 8.94815 0
-0.000681389 7.22381 0 0.0215695 11.0077 0 0.0284182 11.0312 0 0.0325419
11.0482 0 0.0341183 11.0625 0 0.0333212 11.0751 0 0.0313363 11.0839
0 0.0289968 11.0862 0 0.0265255 11.0736 0 0.0234587 11.0159 0
0.0184468 10.7864 0 0.00840115 10.0728 0 0.00107396 8.9064 0 -0.00109831
7.22608 0 0.0178623 11.0065 0 0.0257862 11.0273 0 0.0303178 11.0443
0 0.0323294 11.0594 0 0.0318104 11.0735 0 0.0300238 11.0851 0
0.0278349 11.0933 0 0.0255753 11.095 0 0.0230303 11.0799 0 0.0197647
11.0108 0 0.0143206 10.7432 0 0.00508715 10.0079 0 -0.000580576 8.88575
0 -0.00172129 7.24167 0 0.0146691 11.0053 0 0.023088 11.0233 0
0.0278331 11.0399 0 0.030238 11.0556 0 0.0300017 11.0707 0 0.028385
11.0841 0 0.0262674 11.0957 0 0.0240504 11.1044 0 0.0216703 11.1064
0 0.0189975 11.0892 0 0.0155657 11.0083 0 0.0098379 10.7077 0
0.00160105 9.96571 0 -0.00224905 8.88418 0 -0.00239005 7.27093 0 0.0120876
11.0043 0 0.0205255 11.0196 0 0.0251312 11.0352 0 0.0278301 11.0511
0 0.0278785 11.067 0 0.0264146 11.0818 0 0.024319 11.0954 0
0.0220424 11.1081 0 0.0196247 11.1184 0 0.0170582 11.1214 0 0.0142419
11.1025 0 0.0106581 11.0102 0 0.00494367 10.6829 0 -0.00198065 9.94534
0 -0.00414188 8.90096 0 -0.00321908 7.31399 0 0.00993842 11.0034 0
0.018243 11.0165 0 0.0225049 11.0307 0 0.0251116 11.0459 0 0.0254206
11.0624 0 0.0240951 11.0782 0 0.0219868 11.0935 0 0.0195794 11.1086
0 0.0170004 11.1234 0 0.0143157 11.1359 0 0.011549 11.1406 0
0.00857831 11.1207 0 0.00494901 11.0181 0 -0.000428602 10.6715 0 -0.0058519
9.94573 0 -0.00623478 8.93505 0 -0.00413827 7.37105 0 0.00824104 11.0027
0 0.0161938 11.0137 0 0.0201314 11.0268 0 0.0223964 11.0409 0
0.0226168 11.057 0 0.0214051 11.0737 0 0.0192543 11.0902 0 0.0166584
11.107 0 0.0138238 11.1246 0 0.0108748 11.1423 0 0.00790807 11.1579
0 0.00494062 11.1651 0 0.00189279 11.1448 0 -0.00159829 11.0339 0
-0.00630713 10.6746 0 -0.0100487 9.96595 0 -0.00853899 8.9864 0 -0.00513786
7.44191 0 0.00685802 11.0022 0 0.0142887 11.0113 0 0.0179451 11.0233
0 0.0198893 11.0364 0 0.0197758 11.0516 0 0.018329 11.0682 0
0.0161012 11.0856 0 0.0132641 11.1039 0 0.0100892 11.1233 0 0.00675831
11.1441 0 0.00341893 11.1655 0 0.000171647 11.1851 0 -0.00292503 11.1957
0 -0.00589461 11.176 0 -0.00900318 11.059 0 -0.0127277 10.6936 0
-0.0146031 10.0051 0 -0.0110391 9.05421 0 -0.00620492 7.52635 0 0.00571459
11.0017 0 0.0125732 11.0094 0 0.0159141 11.0202 0 0.0175302 11.0324
0 0.0171229 11.0465 0 0.0152001 11.0623 0 0.0125132 11.08 0
0.00937945 11.0993 0 0.00578049 11.1202 0 0.00195551 11.143 0 -0.00189855
11.1679 0 -0.00562614 11.1939 0 -0.00908484 11.2183 0 -0.0121658 11.2332
0 -0.014841 11.2153 0 -0.0172947 11.0948 0 -0.0197053 10.7287 0
-0.0195117 10.0624 0 -0.0137278 9.13802 0 -0.00732201 7.62369 0 0.00477629
11.0014 0 0.0110405 11.0078 0 0.0140411 11.0176 0 0.0153227 11.0287
0 0.0146083 11.0418 0 0.0122731 11.0568 0 0.00887704 11.0738 0
0.00499626 11.0933 0 0.000883147 11.1154 0 -0.00355329 11.1398 0 -0.00806308
11.167 0 -0.0124386 11.1968 0 -0.0164836 11.2284 0 -0.0200069 11.2585
0 -0.0228624 11.2785 0 -0.024988 11.2636 0 -0.0264738 11.1423 0
-0.0272254 10.7803 0 -0.0247547 10.137 0 -0.0165818 9.23704 0 -0.00848945
7.73331 0 0.00403155 11.0012 0 0.00965597 11.0066 0 0.0123278 11.0153
0 0.0132716 11.0255 0 0.0122497 11.0376 0 0.0095016 11.0516 0
0.00548781 11.0677 0 0.000588126 11.0866 0 -0.00460221 11.1089 0 -0.00978127
11.1346 0 -0.0151009 11.1635 0 -0.0202966 11.1959 0 -0.0251212 11.2317
0 -0.0293309 11.2696 0 -0.0327014 11.3062 0 -0.0350702 11.3324 0
-0.0363377 11.3218 0 -0.0365105 11.2021 0 -0.0352621 10.848 0 -0.0303128
10.2282 0 -0.0195856 9.35054 0 -0.00968605 7.85444 0 0.00346022 11.001
0 0.00847807 11.0056 0 0.0107705 11.0134 0 0.0113806 11.0226 0
0.0100588 11.0337 0 0.00691203 11.0466 0 0.00229445 11.0618 0 -0.00349341
11.0799 0 -0.0100782 11.1015 0 -0.0167178 11.1275 0 -0.0230258 11.1577
0 -0.0292367 11.192 0 -0.0350461 11.2306 0 -0.0401602 11.2732 0
-0.0443035 11.3183 0 -0.0472421 11.3624 0 -0.0487998 11.3955 0 -0.0488543
11.3903 0 -0.0473444 11.2746 0 -0.0437732 10.9314 0 -0.0361458 10.335
0 -0.0226977 9.47742 0 -0.0108822 7.98587 0 0.00301712 11.0008 0
0.00751257 11.0049 0 0.00940753 11.0118 0 0.0096526 11.0201 0 0.00804359
11.0301 0 0.00452306 11.042 0 -0.000668184 11.0561 0 -0.00731132 11.0731
0 -0.0151151 11.0939 0 -0.0236016 11.1191 0 -0.0318162 11.1497 0
-0.0392752 11.1855 0 -0.0463089 11.2261 0 -0.0525666 11.2718 0 -0.0577232
11.322 0 -0.061496 11.3753 0 -0.0636495 11.4275 0 -0.0640148 11.4683
0 -0.0624668 11.4696 0 -0.0588951 11.3599 0 -0.0526935 11.0297 0
-0.0421819 10.4558 0 -0.0258689 9.61643 0 -0.0120642 8.12635 0 0.00266728
11.0007 0 0.00671913 11.0043 0 0.00827371 11.0106 0 0.00814808 11.018
0 0.00620966 11.0269 0 0.00234811 11.0377 0 -0.00337352 11.0507 0
-0.0108222 11.0665 0 -0.019793 11.0861 0 -0.0298987 11.1103 0 -0.0405023
11.14 0 -0.0503798 11.1762 0 -0.0589321 11.2186 0 -0.0666204 11.2666
0 -0.0730628 11.3203 0 -0.0779288 11.379 0 -0.0809426 11.441 0
-0.0818918 11.5019 0 -0.0806339 11.5511 0 -0.0770623 11.5598 0 -0.071043
11.4577 0 -0.0619153 11.1419 0 -0.0483637 10.5897 0 -0.0290617 9.76621
0 -0.0132211 8.27456 0 0.00238673 11.0006 0 0.00606398 11.0038 0
0.00733584 11.0096 0 0.00690647 11.0162 0 0.00462935 11.0242 0 0.000396255
11.0338 0 -0.00580188 11.0455 0 -0.0139911 11.06 0 -0.0240585 11.0782
0 -0.0357126 11.1011 0 -0.0484158 11.1298 0 -0.0613215 11.165 0
-0.072873 11.2078 0 -0.0823542 11.2579 0 -0.0904189 11.3142 0 -0.0966827
11.3767 0 -0.100828 11.4446 0 -0.102614 11.5159 0 -0.101877 11.586
0 -0.0985276 11.6439 0 -0.0925096 11.6607 0 -0.0836656 11.5675 0
-0.0713319 11.2669 0 -0.0546187 10.7351 0 -0.0322403 9.92531 0 -0.0143317
8.42911 0 0.00215869 11.0006 0 0.00551891 11.0035 0 0.0065543 11.0087
0 0.00588699 11.0148 0 0.00334178 11.0218 0 -0.00125328 11.0303 0
-0.00793927 11.0406 0 -0.016791 11.0537 0 -0.0278666 11.0704 0 -0.040977
11.0918 0 -0.05569 11.1189 0 -0.0712634 11.1529 0 -0.0865877 11.1946
0 -0.0997176 11.2452 0 -0.109841 11.3039 0 -0.117888 11.3695 0
-0.123497 11.4415 0 -0.126396 11.5192 0 -0.126413 11.6003 0 -0.123464
11.6799 0 -0.117536 11.7467 0 -0.108629 11.7719 0 -0.0966227 11.6884
0 -0.0808561 11.4033 0 -0.0608672 10.8906 0 -0.0353659 10.0922 0
-0.0153852 8.58854 0 0.00197117 11.0005 0 0.00506242 11.0032 0 0.00589913
11.0081 0 0.00504612 11.0136 0 0.00230065 11.0199 0 -0.00256578 11.0273
0 -0.00969811 11.0362 0 -0.0192023 11.0477 0 -0.0311816 11.0628 0
-0.0456344 11.0823 0 -0.0622427 11.1076 0 -0.0803766 11.1399 0 -0.099032
11.1803 0 -0.116789 11.2297 0 -0.131271 11.2891 0 -0.141617 11.3575
0 -0.149125 11.4331 0 -0.153494 11.5153 0 -0.154538 11.6032 0
-0.152185 11.6942 0 -0.146457 11.7833 0 -0.137446 11.8591 0 -0.125236
11.8929 0 -0.109751 11.8195 0 -0.0903739 11.5497 0 -0.0670348 11.0544
0 -0.0384058 10.2652 0 -0.0163836 8.75144 0 0.00181542 11.0005 0
0.0046777 11.0029 0 0.00534653 11.0075 0 0.00434983 11.0126 0 0.00145762
11.0182 0 -0.00359761 11.0247 0 -0.0110507 11.0324 0 -0.0211261 11.0422
0 -0.0339761 11.0553 0 -0.0496379 11.0729 0 -0.0680005 11.0961 0
-0.0885581 11.1263 0 -0.110423 11.1648 0 -0.132274 11.2127 0 -0.152348
11.2708 0 -0.167817 11.3402 0 -0.177822 11.4191 0 -0.184137 11.5054
0 -0.186572 11.5984 0 -0.185067 11.6966 0 -0.179694 11.7976 0
-0.170612 11.8961 0 -0.158026 11.9806 0 -0.14213 12.0229 0 -0.122899
11.9596 0 -0.0997746 11.7046 0 -0.0730595 11.2251 0 -0.0413397 10.4429
0 -0.0172422 8.91671 0 0.00168493 11.0004 0 0.00435146 11.0027 0
0.00487748 11.0071 0 0.00377093 11.0117 0 0.000773741 11.0168 0 -0.00440608
11.0225 0 -0.0120697 11.0291 0 -0.022545 11.0373 0 -0.0361361 11.0483
0 -0.0529506 11.0636 0 -0.0729023 11.0845 0 -0.0957148 11.1123 0
-0.120631 11.1483 0 -0.146445 11.1941 0 -0.171478 11.2507 0 -0.193614
11.3187 0 -0.209537 11.399 0 -0.218471 11.4893 0 -0.222807 11.5869
0 -0.222521 11.6908 0 -0.217726 11.7995 0 -0.208665 11.9102 0
-0.195655 12.0178 0 -0.179034 12.1106 0 -0.159109 12.161 0 -0.135921
12.1075 0 -0.108959 11.8664 0 -0.0788981 11.401 0 -0.044099 10.6239
0 -0.018557 9.08157 0 0.00157472 11.0004 0 0.00407328 11.0026 0
0.00447981 11.0067 0 0.00328745 11.011 0 0.000217762 11.0156 0 -0.00503746
11.0207 0 -0.0128269 11.0263 0 -0.0235552 11.0331 0 -0.0376577 11.0421
0 -0.0554371 11.0547 0 -0.0768984 11.0728 0 -0.101767 11.0979 0
-0.12954 11.1312 0 -0.159142 11.1743 0 -0.188999 11.2286 0 -0.217059
11.295 0 -0.24081 11.374 0 -0.256472 11.4661 0 -0.26346 11.5685
0 -0.264927 11.6776 0 -0.261066 11.7925 0 -0.252205 11.9115 0
-0.238785 12.0316 0 -0.221295 12.1477 0 -0.20022 12.2482 0 -0.175977
12.3061 0 -0.148679 12.2619 0 -0.117854 12.0336 0 -0.0844796 11.5807
0 -0.047317 10.8061 0 -0.0197867 9.27579 0 0.00148095 11.0004 0
0.00383503 11.0024 0 0.00413775 11.0063 0 0.00288166 11.0104 0 -0.000235333
11.0146 0 -0.00552884 11.0191 0 -0.0133799 11.0238 0 -0.0242488 11.0294
0 -0.0386685 11.0367 0 -0.0571099 11.0469 0 -0.079825 11.0617 0
-0.106649 11.0834 0 -0.137046 11.1135 0 -0.170216 11.1535 0 -0.204716
11.2048 0 -0.238569 11.2688 0 -0.269292 11.3462 0 -0.294029 11.4372
0 -0.308545 11.542 0 -0.312578 11.6568 0 -0.310193 11.7777 0
-0.301855 11.9035 0 -0.288136 12.0323 0 -0.269701 12.1612 0 -0.247227
12.285 0 -0.221333 12.3923 0 -0.192546 12.457 0 -0.161062 12.4213
0 -0.126369 12.2048 0 -0.0901888 11.7621 0 -0.0501496 11.0097 0
-0.02011 9.47538 0 0.00140056 11.0003 0 0.0036302 11.0023 0 0.00384305
11.0061 0 0.00254188 11.0098 0 -0.00060566 11.0137 0 -0.00590981 11.0177
0 -0.0137748 11.0217 0 -0.0246996 11.0262 0 -0.0392881 11.0319 0
-0.0581374 11.0399 0 -0.081713 11.0517 0 -0.110158 11.0694 0 -0.143061
11.0955 0 -0.179536 11.1318 0 -0.21844 11.1796 0 -0.257903 11.2404
0 -0.295494 11.3154 0 -0.328326 11.4049 0 -0.353226 11.5087 0
-0.365545 11.6268 0 -0.365492 11.7544 0 -0.3582 11.8869 0 -0.344455
12.0232 0 -0.325103 12.1612 0 -0.301048 12.2981 0 -0.273143 12.4288
0 -0.242135 12.5421 0 -0.208661 12.6126 0 -0.172946 12.5846 0
-0.134708 12.3781 0 -0.0956153 11.965 0 -0.0519956 11.233 0 -0.0205131
9.67054 0 0.00133109 11.0003 0 0.00345349 11.0022 0 0.00358959 11.0058
0 0.00225441 11.0094 0 -0.000909033 11.013 0 -0.00620393 11.0164 0
-0.0140482 11.0198 0 -0.0249665 11.0234 0 -0.0396122 11.0278 0 -0.058675
11.0338 0 -0.0827826 11.0429 0 -0.112347 11.0568 0 -0.147334 11.0781
0 -0.186987 11.1097 0 -0.230003 11.1534 0 -0.27483 11.2103 0
-0.319118 11.2819 0 -0.359983 11.369 0 -0.394161 11.4716 0 -0.418201
11.5891 0 -0.427114 11.7207 0 -0.421749 11.8611 0 -0.40846 12.0051
0 -0.38839 12.1512 0 -0.362677 12.2976 0 -0.332456 12.4416 0
-0.298749 12.5781 0 -0.26242 12.6963 0 -0.224162 12.7717 0 -0.1844
12.7499 0 -0.143067 12.5723 0 -0.100441 12.1883 0 -0.0540182 11.4524
0 -0.0209448 9.85917 0 0.00127116 11.0003 0 0.00330027 11.0021 0
0.00337085 11.0056 0 0.00201026 11.009 0 -0.00115853 11.0123 0 -0.00642993
11.0154 0 -0.0142289 11.0182 0 -0.0250959 11.021 0 -0.0397167 11.0241
0 -0.0588467 11.0284 0 -0.0832342 11.035 0 -0.113497 11.0456 0
-0.149935 11.0623 0 -0.192249 11.0882 0 -0.239255 11.1263 0 -0.289138
11.1786 0 -0.339882 11.246 0 -0.388644 11.3297 0 -0.432093 11.4301
0 -0.466622 11.5468 0 -0.488592 11.6784 0 -0.492764 11.8239 0
-0.480803 11.9768 0 -0.460426 12.1315 0 -0.433154 12.2868 0 -0.400418
12.4407 0 -0.36357 12.5907 0 -0.323782 12.7318 0 -0.281985 12.8539
0 -0.239004 12.9327 0 -0.196127 12.9354 0 -0.151 12.7865 0
-0.105057 12.4085 0 -0.0559633 11.6654 0 -0.0213045 10.0399 0 0.00316628
11.0021 0 0.00119889 11.0003 0 0.00318015 11.0054 0 0.00180228 11.0086
0 -0.00136428 11.0117 0 -0.00660259 11.0145 0 -0.0143396 11.0168 0
-0.0251239 11.0188 0 -0.0396611 11.0209 0 -0.0587508 11.0237 0 -0.0832283
11.0281 0 -0.113867 11.0356 0 -0.151226 11.0482 0 -0.195414 11.0685
0 -0.245792 11.0999 0 -0.300631 11.1458 0 -0.357518 11.2082 0
-0.413959 11.2875 0 -0.466601 11.3845 0 -0.511693 11.4993 0 -0.545359
11.6308 0 -0.563886 11.7769 0 -0.561892 11.9361 0 -0.542032 12.1011
0 -0.513509 12.2658 0 -0.478229 12.4291 0 -0.437896 12.5894 0
-0.394057 12.7442 0 -0.347986 12.8889 0 -0.300697 13.0134 0 -0.254407
13.1135 0 -0.2076 13.1402 0 -0.158228 12.9981 0 -0.10924 12.623
0 -0.0576277 11.8704 0 -0.0215734 10.2123 0 0.00301143 11.0052 0
0.00300928 11.002 0 0.0011116 11.0003 0 0.00162338 11.0083 0 -0.00153441
11.0112 0 -0.00673333 11.0137 0 -0.014398 11.0155 0 -0.0250788 11.0169
0 -0.0394917 11.0181 0 -0.0584642 11.0195 0 -0.0828918 11.022 0
-0.113662 11.0267 0 -0.151531 11.0356 0 -0.196932 11.0508 0 -0.249718
11.0756 0 -0.308795 11.1137 0 -0.371776 11.1689 0 -0.435598 11.2428
0 -0.497261 11.3353 0 -0.552917 11.4469 0 -0.598462 11.577 0
-0.629855 11.7238 0 -0.643437 11.8844 0 -0.633795 12.057 0 -0.604756
12.2333 0 -0.567101 12.4071 0 -0.523101 12.5773 0 -0.474708 12.7427
0 -0.423607 12.9012 0 -0.371158 13.048 0 -0.320266 13.1925 0
-0.269757 13.3131 0 -0.217937 13.3426 0 -0.164697 13.2047 0 -0.112828
12.8302 0 -0.0590002 12.0665 0 -0.021744 10.3758 0 0.00146387 11.008
0 0.00282677 11.005 0 0.00281224 11.0019 0 0.00102771 11.0002 4.2903e-19
-0.00167694 11.0108 0 -0.00683091 11.013 0 -0.0144174 11.0144 0 -0.0249824
11.0153 0 -0.0392443 11.0156 0 -0.0580464 11.0158 0 -0.0823236 11.0165
0 -0.113044 11.0189 0 -0.151112 11.0243 0 -0.19721 11.035 0
-0.251587 11.0538 0 -0.313737 11.084 0 -0.382 11.1301 0 -0.453241
11.196 0 -0.523667 11.283 0 -0.589792 11.3902 0 -0.647325 11.5175
0 -0.691899 11.6635 0 -0.719439 11.8258 0 -0.726481 12.0009 0
-0.707708 12.1862 0 -0.668272 12.3729 0 -0.620596 12.5545 0 -0.567284
12.7304 0 -0.510474 12.8997 0 -0.451949 13.0603 0 -0.395509 13.2267
0 -0.340018 13.3903 0 -0.283553 13.5105 0 -0.227179 13.5406 0
-0.170298 13.4046 0 -0.115844 13.0291 0 -0.0600993 12.2532 0 -0.0218198
10.5302 0 -0.00180712 11.0104 0 0.0013079 11.0077 0 0.00260898 11.0047
1.87834e-18 0.0026215 11.0018 -1.35838e-18 0.000946786 11.0002 -8.7071e-19 -0.00690392 11.0123 0
-0.0144075 11.0135 0 -0.0248509 11.0138 0 -0.0389461 11.0134 0 -0.057543
11.0125 0 -0.0816002 11.0118 0 -0.112141 11.0119 0 -0.150176 11.0144
0 -0.196578 11.0209 0 -0.251907 11.0341 0 -0.316133 11.0572 0
-0.388289 11.0942 0 -0.466058 11.1497 0 -0.545418 11.2279 0 -0.621822
11.3295 0 -0.691354 11.4526 0 -0.749358 11.5965 0 -0.791327 11.7591
0 -0.813301 11.9369 0 -0.812164 12.1259 0 -0.782817 12.323 0
-0.731867 12.5189 0 -0.673414 12.707 0 -0.61032 12.8874 0 -0.544858
13.0591 0 -0.481841 13.2392 0 -0.420303 13.4243 0 -0.357813 13.586
0 -0.295873 13.7038 0 -0.235235 13.7324 0 -0.175053 13.5968 0
-0.118333 13.219 0 -0.0609506 12.4301 0 -0.0218134 10.6753 0 -0.00697509
11.0118 0 -0.0018956 11.0099 -3.80206e-18 0.00113656 11.0073 -1.97778e-18 0.00239756 11.0045
9.53557e-19 0.00243421 11.0017 -9.18586e-19 0.000868913 11.0002 0 -0.0143776 11.0126 0
-0.0246953 11.0125 0 -0.0386173 11.0115 0 -0.0569888 11.0097 0 -0.0807802
11.0075 0 -0.11105 11.0058 0 -0.148885 11.0055 0 -0.195296 11.0084
0 -0.251084 11.0166 0 -0.3166 11.0331 0 -0.391448 11.0617 0
-0.474109 11.1067 0 -0.561461 11.1732 0 -0.64851 11.2653 0 -0.729957
11.383 0 -0.80154 11.5232 0 -0.858357 11.6845 0 -0.895908 11.8638
0 -0.910514 12.0569 0 -0.899566 12.259 0 -0.858288 12.4668 0
-0.794851 12.6705 0 -0.725008 12.8639 0 -0.651801 13.047 0 -0.581239
13.2384 0 -0.512471 13.4372 0 -0.442716 13.6198 0 -0.373716 13.7778
0 -0.306658 13.8912 0 -0.242126 13.917 0 -0.179023 13.7806 0
-0.120339 13.3994 0 -0.0615845 12.5971 0 -0.0217391 10.8113 0 -0.0143608
11.0119 0 -0.00694963 11.0111 8.00196e-18 -0.0019493 11.0093 0 0.000971463 11.0068
2.00657e-18 0.00219443 11.0042 5.85131e-22 0.00225121 11.0016 0 0.00079409 11.0002 0
-0.0245253 11.0114 0 -0.0382709 11.0098 0 -0.0564089 11.0071 0 -0.079908
11.0038 0 -0.109847 11.0004 0 -0.147363 10.9977 0 -0.193568 10.9972
0 -0.249444 11.0009 0 -0.315641 11.0115 0 -0.392224 11.0323 0
-0.478346 11.0676 0 -0.571791 11.1222 0 -0.668531 11.2013 0 -0.762523
11.309 0 -0.847751 11.4441 0 -0.919741 11.6025 0 -0.973487 11.7816
0 -1.00468 11.9775 0 -1.01008 12.1853 0 -0.987733 12.3996 0
-0.933297 12.6167 0 -0.856565 12.8268 0 -0.774881 13.0236 0 -0.695835
13.2269 0 -0.618698 13.4372 0 -0.540267 13.6333 0 -0.462776 13.8115
0 -0.387698 13.9639 0 -0.315932 14.0719 0 -0.247928 14.0939 0
-0.182272 13.9556 0 -0.121915 13.5702 0 -0.0620313 12.7541 0 -0.0216096
10.9382 0 -0.024389 11.0104 0 -0.0141703 11.011 4.80243e-22 -0.00680448 11.0103
0 -0.00200144 11.0087 -2.11138e-18 0.00081525 11.0064 4.24314e-22 0.001999 11.004 0
0.00207246 11.0015 0 0.000722324 11.0002 0 -0.0379167 11.0083 0 -0.0558189
11.0049 0 -0.0790155 11.0005 0 -0.108588 10.9955 0 -0.145705 10.9908
0 -0.191552 10.9873 0 -0.247242 10.987 0 -0.313657 10.9921 0
-0.391228 11.0059 0 -0.47966 11.0321 0 -0.577514 11.0755 0 -0.681772
11.1413 0 -0.787397 11.2348 0 -0.887244 11.3597 0 -0.974664 11.5136
0 -1.04515 11.6909 0 -1.09376 11.888 0 -1.11657 12.1002 0
-1.11094 12.3218 0 -1.07572 12.5469 0 -1.00706 12.7719 0 -0.916398
12.9865 0 -0.82799 13.2042 0 -0.741356 13.4267 0 -0.652825 13.6343
0 -0.565203 13.8257 0 -0.480468 13.9978 0 -0.399795 14.1434 0
-0.323792 14.2451 0 -0.252733 14.2624 0 -0.184873 14.1214 0 -0.123111
13.7312 0 -0.0623173 12.9014 0 -0.0214361 11.0565 0 -0.0376241 11.0069
0 -0.0239724 11.0092 -4.42519e-18 -0.0137319 11.01 0 -0.00666454 11.0095 0
-0.00204024 11.0081 6.42271e-18 0.000668313 11.006 0 0.00181102 11.0038 0 0.00189809
11.0014 1.91413e-18 0.000653663 11.0001 0 -0.0552292 11.0029 0 -0.0781212 10.9976
0 -0.107313 10.9913 0 -0.143985 10.9846 0 -0.189369 10.9786 0
-0.244677 10.9746 0 -0.310964 10.9749 0 -0.388949 10.9822 0 -0.478784
11.0002 0 -0.579678 11.0332 0 -0.689494 11.0863 0 -0.804304 11.165
0 -0.917975 11.2745 0 -1.02224 11.4181 0 -1.10995 11.5919 0
-1.17677 11.7886 0 -1.21807 12.0037 0 -1.23044 12.2314 0 -1.21206
12.4656 0 -1.16263 12.7002 0 -1.07883 12.9311 0 -0.980317 13.1675
0 -0.883076 13.4051 0 -0.782964 13.6252 0 -0.683519 13.8279 0
-0.587271 14.0128 0 -0.495846 14.1775 0 -0.410115 14.3156 0 -0.330354
14.4103 0 -0.256639 14.4222 0 -0.186898 14.2779 0 -0.123976 13.8826
0 -0.0624677 13.0391 0 -0.0212289 11.1665 0 -0.0547377 11.0012 0
-0.0369057 11.0054 0 -0.0231231 11.0079 -4.83599e-18 -0.0133106 11.009 -4.66714e-18 -0.00650511
11.0088 -9.00269e-18 -0.00206551 11.0076 0 0.000530652 11.0056 -4.18162e-18 0.00163076 11.0035
-4.02748e-18 0.00172795 11.0013 1.9384e-18 0.000588045 11.0001 0 -0.0772364 10.995 0
-0.106046 10.9875 0 -0.142254 10.9792 0 -0.187111 10.9708 0 -0.241902
10.9637 0 -0.30781 10.9596 0 -0.385778 10.9611 0 -0.476311 10.9715
0 -0.579153 10.9949 0 -0.692919 11.0361 0 -0.814661 11.1007 0