#           x             T
    -0.118946       349.903
    -0.118121       349.891
    -0.117174       349.883
    -0.116087       349.877
    -0.114839       349.873
    -0.113407        349.87
    -0.111763       349.868
    -0.109877       349.866
    -0.107712       349.865
    -0.105226       349.864
    -0.102373       349.864
   -0.0990994       349.866
   -0.0953416       349.872
   -0.0914285       349.886
    -0.087619       349.916
   -0.0838095       349.976
        -0.08       350.094
   -0.0761904       350.323
   -0.0723809       350.763
   -0.0685714         351.6
   -0.0649271       353.085
    -0.061624       355.427
   -0.0586549       358.761
   -0.0559862       363.051
   -0.0535874       368.055
   -0.0514312       373.375
   -0.0494932       378.539
   -0.0477512       383.132
   -0.0461853       386.914
   -0.0447779       389.847
   -0.0435128       392.034
   -0.0423757       393.634
   -0.0413536       394.803
   -0.0404349       395.717
     -0.03925       396.584
     -0.03775         397.3
     -0.03625       397.767
     -0.03475       398.047
     -0.03325       398.207
     -0.03175       398.288
     -0.03025        398.31
     -0.02875        398.28
     -0.02725       398.195
     -0.02575       398.049
   -0.0243993       397.854
   -0.0231362       397.616
    -0.021743       397.287
   -0.0202065       396.744
   -0.0185118       396.033
   -0.0171075        395.43
   -0.0161272       395.022
   -0.0145812       394.428
    -0.012414       393.699
   -0.0103452       393.142
  -0.00847254       392.785
  -0.00711441       392.606
  -0.00630907       392.527
  -0.00524316       392.455
  -0.00385435       392.408
  -0.00259726       392.409
  -0.00133333       392.445
            0       392.509
   0.00133333       392.598
   0.00260066       392.706
   0.00386381       392.825
   0.00525697       392.968
   0.00631696       393.083
   0.00712283       393.172
    0.0084882       393.325
    0.0103573       393.538
    0.0124188       393.767
    0.0145859       393.985
    0.0161321        394.12
     0.017115       394.197
    0.0185274       394.286
    0.0202225       394.348
    0.0217568       394.332
    0.0231456       394.222
    0.0244027       394.032
      0.02575        393.72
      0.02725       393.243
      0.02875       392.573
      0.03025        391.69
      0.03175       390.566
      0.03325       389.181
      0.03475       387.523
      0.03625       385.594
      0.03775       383.409
      0.03925       381.094
    0.0404349       378.999
    0.0413536       377.102
    0.0423757       374.993
    0.0435128       372.578
    0.0447779        369.92
    0.0461853       367.111
    0.0477511       364.262
    0.0494932       361.499
    0.0514312       358.944
    0.0535874       356.691
    0.0559862       354.793
    0.0586549       353.271
     0.061624       352.112
    0.0649271       351.278
    0.0685714       350.716
    0.0723809        350.37
    0.0761904       350.171
         0.08       350.057
    0.0838095       349.992
     0.087619       349.955
    0.0914285       349.933
    0.0953419       349.921
    0.0991002       349.914
     0.102374        349.91
     0.105227       349.909
     0.107713       349.908
     0.109878       349.908
     0.111765       349.908
     0.113408        349.91
      0.11484       349.912
     0.116088       349.916
     0.117175       349.921
     0.118122       349.928
     0.118947       349.939
     0.119665       349.949
