#           x             T
    -0.118947       349.905
    -0.118121       349.899
    -0.117174       349.891
    -0.116087       349.885
     -0.11484        349.88
    -0.113408       349.877
    -0.111764       349.874
    -0.109877       349.872
    -0.107712       349.871
    -0.105227       349.869
    -0.102374       349.868
   -0.0990995       349.868
   -0.0953416        349.87
   -0.0914285       349.876
   -0.0876191        349.89
   -0.0838095       349.922
        -0.08       349.992
   -0.0761904       350.141
   -0.0723809        350.46
   -0.0685715       351.135
   -0.0649271       352.477
    -0.061624       354.886
    -0.058655       358.777
   -0.0559862       364.335
   -0.0535874       371.291
   -0.0514313       378.861
   -0.0494932       385.854
   -0.0477512       391.265
   -0.0461853       394.806
   -0.0447779       396.827
   -0.0435128       397.868
   -0.0423757       398.371
   -0.0413536       398.604
   -0.0404349       398.708
     -0.03925       398.751
     -0.03775       398.747
     -0.03625       398.709
     -0.03475       398.657
     -0.03325       398.598
     -0.03175       398.537
     -0.03025       398.471
     -0.02875       398.397
     -0.02725       398.312
     -0.02575       398.214
   -0.0243994       398.108
   -0.0231362       397.989
    -0.021743       397.844
   -0.0202065       397.669
   -0.0189203       397.516
   -0.0180315       397.408
   -0.0166427       397.242
   -0.0145812       397.004
    -0.012414       396.829
   -0.0110231       396.734
   -0.0100402       396.679
  -0.00847254       396.605
  -0.00677747       396.561
  -0.00524316       396.551
  -0.00385435       396.562
  -0.00288618        396.58
  -0.00228892       396.596
  -0.00133333        396.63
            0       396.682
   0.00133333       396.738
     0.002289       396.783
   0.00288966       396.815
   0.00386381        396.86
   0.00525697       396.917
   0.00679351       396.967
    0.0084882        396.99
    0.0100473        396.98
    0.0110276       396.958
    0.0124188       396.902
    0.0145859       396.743
    0.0166548       396.483
    0.0180384       396.244
    0.0189282       396.055
    0.0202225       395.728
    0.0217568       395.242
    0.0231456       394.728
    0.0244027       394.157
      0.02575       393.425
      0.02725       392.508
      0.02875        391.42
      0.03025       390.148
      0.03175       388.672
      0.03325       386.979
      0.03475       385.061
      0.03625       382.916
      0.03775        380.56
      0.03925       378.132
    0.0404349       376.024
    0.0413536       374.238
    0.0423757        372.37
    0.0435128       370.291
    0.0447779       368.008
    0.0461853       365.549
    0.0477511       362.972
    0.0494932       360.372
    0.0514312       357.885
    0.0535874        355.66
    0.0559862       353.815
    0.0586549       352.404
     0.061624       351.407
    0.0649271       350.752
    0.0685714       350.352
    0.0723809        350.13
    0.0761904       350.014
         0.08       349.954
    0.0838095       349.923
     0.087619       349.907
    0.0914285       349.899
    0.0953419       349.896
    0.0991002       349.894
     0.102374       349.894
     0.105227       349.894
     0.107713       349.895
     0.109878       349.896
     0.111765       349.898
     0.113408         349.9
      0.11484       349.904
     0.116088       349.908
     0.117175       349.915
     0.118122       349.921
     0.118947       349.927
     0.119665        349.93
