#           x             T
    -0.118946       349.885
    -0.118121       349.874
    -0.117174       349.867
    -0.116087       349.862
    -0.114839       349.858
    -0.113407       349.855
    -0.111763       349.853
    -0.109877       349.852
    -0.107712       349.851
    -0.105226        349.85
    -0.102373       349.849
   -0.0990994        349.85
   -0.0953416       349.854
   -0.0914285       349.863
    -0.087619       349.882
   -0.0838095       349.921
        -0.08       349.996
   -0.0761904       350.138
   -0.0723809       350.405
   -0.0685714       350.899
   -0.0649271       351.749
    -0.061624       353.068
   -0.0586549       354.949
   -0.0559862       357.418
   -0.0535874       360.397
   -0.0514312       363.723
   -0.0494932       367.203
   -0.0477512       370.645
   -0.0461853       373.876
   -0.0447779       376.783
   -0.0435128       379.317
   -0.0423757       381.485
   -0.0413536       383.335
   -0.0404349       385.049
     -0.03925       387.009
     -0.03775       389.123
     -0.03625       390.991
     -0.03475       392.492
     -0.03325       393.649
     -0.03175       394.496
     -0.03025       395.081
     -0.02875       395.448
     -0.02725       395.623
     -0.02575       395.651
   -0.0243993         395.6
   -0.0231362       395.501
    -0.021743       395.329
   -0.0202065       394.835
   -0.0185118       394.177
   -0.0171075       393.635
   -0.0161272       393.281
   -0.0145812       392.776
    -0.012414       392.168
   -0.0103452        391.71
  -0.00847254       391.428
  -0.00711441       391.299
  -0.00630907        391.25
  -0.00524316       391.218
  -0.00385435       391.219
  -0.00259726       391.259
  -0.00133333       391.325
            0       391.423
   0.00133333       391.537
   0.00260066       391.653
   0.00386381       391.779
   0.00525697        391.92
   0.00631696       392.028
   0.00712283        392.11
    0.0084882       392.248
    0.0103573        392.44
    0.0124188       392.659
    0.0145859       392.899
    0.0161321       393.076
     0.017115       393.193
    0.0185274       393.367
    0.0202225       393.583
    0.0217568        393.78
    0.0231456       393.949
    0.0244027       394.097
      0.02575       394.236
      0.02725       394.351
      0.02875       394.414
      0.03025       394.396
      0.03175       394.266
      0.03325       393.991
      0.03475       393.532
      0.03625       392.847
      0.03775       391.889
      0.03925       390.679
    0.0404349       389.402
    0.0413536       388.095
    0.0423757        386.47
    0.0435128       384.378
    0.0447779       381.766
    0.0461853       378.603
    0.0477511       374.916
    0.0494932       370.822
    0.0514312       366.545
    0.0535874       362.404
    0.0559862       358.731
    0.0586549       355.761
     0.061624       353.565
    0.0649271       352.065
    0.0685714       351.112
    0.0723809       350.557
    0.0761904       350.252
         0.08       350.085
    0.0838095       349.993
     0.087619       349.942
    0.0914285       349.914
    0.0953419       349.898
    0.0991002       349.889
     0.102374       349.884
     0.105227       349.882
     0.107713       349.881
     0.109878       349.881
     0.111765       349.881
     0.113408       349.882
      0.11484       349.884
     0.116088       349.887
     0.117175       349.892
     0.118122       349.898
     0.118947       349.909
     0.119665       349.919
