# vtk DataFile Version 2.0
sampleSurface
ASCII
DATASET POLYDATA
POINTS 15978 float
-4.26165e-19 0.000133477 0 -4.18079e-19 -0.000798814 0 -4.33681e-19 0.001 0 -4.09379e-19 -0.00180187
0 -0.00181681 0.000361473 0 0.00181681 0.000361473 0 -0.00181396 -0.000575145 0
0.00181396 -0.000575145 0 -0.00181945 0.00123202 0 0.00181945 0.00123202 0 -0.00181089
-0.00158285 0 0.00181089 -0.00158285 0 -4.00018e-19 -0.00288105 0 -0.00180759 -0.00266704
0 0.00180759 -0.00266704 0 -0.00351565 8.15481e-05 0 0.00351565 8.15481e-05 0
-0.00351186 -0.000939823 0 0.00351186 -0.000939823 0 -0.00351918 0.00103087 0 0.00351918
0.00103087 0 -0.00352245 0.00191322 0 0.00352245 0.00191322 0 -3.89947e-19 -0.00404214
0 -0.00350777 -0.00203871 0 0.00350777 -0.00203871 0 -0.00180405 -0.00383352 0
0.00180405 -0.00383352 0 -0.00350338 -0.00322101 0 0.00350338 -0.00322101 0 -0.005
8.60602e-05 0 0.005 8.60602e-05 0 -0.005 -0.00103629 0 0.005 -0.00103629
0 -0.005 0.00112923 0 0.005 0.00112923 0 -3.79112e-19 -0.00529135 0
-0.00180023 -0.00508853 0 0.00180023 -0.00508853 0 -0.005 0.00209882 0 0.005
0.00209882 0 -0.005 -0.00224382 0 0.005 -0.00224382 0 -0.00349866 -0.00449304
0 0.00349866 -0.00449304 0 -0.005 0.003 0 0.005 0.003 0
-0.005 -0.003543 0 0.005 -0.003543 0 -0.00637208 2.82617e-05 0 0.00639053
4.25732e-05 0 -0.00637208 0.00114892 0 -0.00637208 -0.00117745 0 0.00639053 -0.00116311
0 0.00639053 0.00116321 0 -3.67455e-19 -0.00663538 0 -0.00179612 -0.00643879 0
0.00179612 -0.00643879 0 -0.00637208 0.00219052 0 0.00639053 0.00220479 0 -0.00349357
-0.00586162 0 0.00349357 -0.00586162 0 -0.00637208 -0.00247467 0 0.00639053 -0.00246031
0 -0.005 -0.00494079 0 0.005 -0.00494079 0 -0.00637208 0.00315864 0
0.00639053 0.00317289 0 -0.00637208 -0.00387036 0 0.00639053 -0.00385597 0 -0.00637208
0.00405846 0 0.00639053 0.00407269 0 -0.00778421 -7.99569e-05 0 0.00781802 -5.3679e-05
0 -0.00778421 0.00112388 0 0.00781802 0.00115011 0 -0.00778421 -0.00137517 0
0.00781802 -0.00134884 0 -3.54912e-19 -0.00808142 0 -0.0017917 -0.00789154 0 0.0017917
-0.00789154 0 -0.00778421 0.0022428 0 -0.0034881 -0.00733407 0 0.0034881 -0.00733407
0 0.00781802 0.00226899 0 -0.005 -0.00644467 0 0.005 -0.00644467 0
-0.00778421 -0.00276868 0 0.00781802 -0.0027423 0 -0.00637208 -0.00537197 0 0.00639053
-0.00535755 0 -0.00778421 0.00328278 0 0.00781802 0.00330893 0 -0.00778421 0.00424939
0 -0.00778421 -0.00426796 0 0.00781802 -0.00424152 0 0.00781802 0.00427551 0
-0.00923755 -0.000243565 0 0.00928347 -0.000207818 0 -0.00923755 0.00104957 0 -0.00778421
0.00514782 0 0.00928347 0.00108525 0 0.00781802 0.0051739 0 -0.00923755 -0.00163485
0 0.00928347 -0.00159903 0 -0.00637208 -0.00698755 0 0.00639053 -0.0069731 0
-0.005 -0.0080627 0 0.005 -0.0080627 0 -0.00923755 0.00225148 0 0.00928347
0.0022871 0 -0.00348222 -0.00891827 0 0.00348222 -0.00891827 0 -0.00178695 -0.00945455
0 0.00178695 -0.00945455 0 -3.41418e-19 -0.00963721 0 -0.00923755 -0.00313172 0
-0.00778421 -0.00588103 0 0.00781802 -0.00585453 0 0.00928347 -0.00309583 0 -0.00923755
0.0033686 0 0.00928347 0.00340416 0 -0.00923755 0.00440692 0 0.00928347 0.00444243
0 -0.00923755 -0.00474221 0 0.00928347 -0.00470623 0 -0.00923755 0.00537198 0
-0.0107333 -0.000467921 0 0.00928347 0.00540745 0 -0.0107333 0.000921062 0 0.0107879
-0.000425364 0 0.00639053 -0.00871127 0 -0.00637208 -0.00872575 0 0.0107879 0.000963535
0 -0.00778421 -0.00761653 0 0.00781802 -0.00758997 0 -0.0107333 -0.00196233 0
0.0107879 -0.00191968 0 -0.0107333 0.00221206 0 -0.005 -0.00980352 0 0.005
-0.00980352 0 0.0107879 0.00225445 0 -0.00923755 0.00626897 0 -0.00347589 -0.0106227
0 0.00347589 -0.0106227 0 0.00928347 0.00630439 0 -0.0107333 0.00341198 0
-0.00178183 -0.0111362 0 0.00178183 -0.0111362 0 -0.00923755 -0.00647493 0 0.00928347
-0.00643887 0 -3.26899e-19 -0.0113111 0 -0.0107333 -0.00357015 0 0.0107879 0.00345431
0 0.0107879 -0.00352741 0 -0.0107333 0.00452726 0 0.0107879 0.00456952 0
-0.0107333 -0.00530001 0 0.0107879 -0.00525717 0 -0.0107333 0.00556386 0 0.0107879
0.00560606 0 -0.000743369 0.0122055 0 0.000743369 0.0122055 0 -0.00778421 -0.00948375
0 0.00781802 -0.00945713 0 -0.0122727 0.000733061 0 -0.0122727 -0.000758799 0
0.0123323 -0.000712262 0 0.0123323 0.0007795 0 0.00639053 -0.0105814 0 -0.00637208
-0.0105959 0 -0.00923755 -0.00833916 0 -0.0122727 0.00211968 0 0.00928347 -0.00830301
0 -0.0122727 -0.00236389 0 0.0123323 0.00216603 0 0.0123323 -0.00231725 0
-0.0107333 0.00652734 0 0.0107879 0.00656947 0 -0.005 -0.0116765 0 0.005
-0.0116765 0 -0.0122727 0.00340848 0 0.0123323 0.00345474 0 -0.000741126 0.0128136
0 0.000741126 0.0128136 0 -0.0107333 -0.00716117 0 0.0107879 -0.00711821 0
-0.00346908 -0.0124565 0 0.00346908 -0.0124565 0 -0.0122727 -0.00409081 0 0.0123323
-0.00404405 0 -0.0107333 0.00742284 0 -0.00177633 -0.0129455 0 0.00177633 -0.0129455
0 -0.0122727 0.00460636 0 -3.11279e-19 -0.013112 0 0.0107879 0.00746492 0
-0.002 0.013 0 0.002 0.013 0 0.0123323 0.00465255 0 -0.0007387
0.0134712 0 0.0007387 0.0134712 0 -0.0122727 0.00571974 0 0.0123323 0.00576585
0 -0.0122727 -0.00594879 0 0.0123323 -0.00590191 0 -0.002 0.0135849 0
0.002 0.0135849 0 -0.0138571 0.000479853 0 -0.00923755 -0.0103449 0 0.00928347
-0.0103086 0 0.00781802 -0.011466 0 -0.00778421 -0.0114927 0 -0.0138571 -0.00112242
0 0.0139177 0.000527252 0 0.0139177 -0.00107491 0 -0.0138571 0.0019691 0
-0.0122727 0.00675458 0 0.0139177 0.00201639 0 0.0123323 0.00680062 0 -0.0107333
-0.00916358 0 0.00639053 -0.0125934 0 0.0107879 -0.0091205 0 -0.00637208 -0.012608
0 -0.0138571 -0.0028463 0 0.0139177 -0.00279868 0 -0.000736077 0.0141824 0
0.000736077 0.0141824 0 -0.00319452 0.0138829 0 0.00320133 0.0138879 0 -0.0138571
0.00335328 0 0.0139177 0.00340049 0 -0.002 0.0142174 0 0.002 0.0142174
0 -0.0122727 0.00771641 0 0.0123323 0.00776239 0 -0.005 -0.0136916 0
0.005 -0.0136916 0 -0.0138571 0.00463982 0 -0.0122727 -0.0079478 0 -0.0138571
-0.00470103 0 0.0123323 -0.00790078 0 0.0139177 -0.00465328 0 0.0139177 0.00468694
0 -0.00319452 0.0144678 0 0.00320133 0.0144728 0 -0.00346175 -0.0144295 0
0.00346175 -0.0144295 0 -0.00073324 0.0149515 0 0.00073324 0.0149515 0 -0.0122727
0.00861039 0 -0.00177041 -0.0148921 0 0.00177041 -0.0148921 0 -0.002 0.0149014
0 0.002 0.0149014 0 -0.0138571 0.0058356 0 -2.94473e-19 -0.0150496 0
0.0123323 0.00865631 0 0.0139177 0.00588264 0 -0.0138571 -0.00669653 0 0.0139177
-0.00664864 0 -0.00319452 0.0151003 0 0.00320133 0.0151053 0 -0.0154877 0.000155282
0 -0.0138571 0.00694702 0 -0.00451419 0.0148583 0 0.0045263 0.0148673 0
0.00928347 -0.0124665 0 -0.00923755 -0.0125028 0 0.0155453 0.000200444 0 -0.0154877
-0.00156548 0 0.0139177 0.00699399 0 -0.0154877 0.00175466 0 -0.0107333 -0.011318
0 0.0107879 -0.0112748 0 0.0155453 -0.00152021 0 0.0155453 0.00179972 0
0.00781802 -0.0136273 0 -0.00778421 -0.0136541 0 -0.002 0.0156411 0 0.002
0.0156411 0 -0.000730172 0.0157833 0 0.000730172 0.0157833 0 -0.0154877 0.0032412
0 -0.0154877 -0.00341685 0 0.0155453 0.00328617 0 -0.0122727 -0.0100985 0
0.0155453 -0.00337146 0 0.0123323 -0.0100514 0 -0.0138571 0.00798004 0 0.0139177
0.00802694 0 0.00639053 -0.0147581 0 -0.00637208 -0.0147727 0 -0.00451419 0.0154432
0 0.0045263 0.0154521 0 -0.00319452 0.0157843 0 0.00320133 0.0157893 0
-0.0154877 0.00462288 0 0.0155453 0.00466776 0 -0.0154877 -0.00540874 0 -0.0138571
-0.00884348 0 0.0155453 -0.00536322 0 0.0139177 -0.00879545 0 -0.0138571 0.00894019
0 -0.002 0.0164411 0 0.002 0.0164411 0 0.0139177 0.00898702 0
-0.0154877 0.00590709 0 -0.005 -0.0158596 0 0.005 -0.0158596 0 0.0155453
0.00595189 0 -0.00451419 0.0160757 0 -0.000726854 0.0166828 0 0.000726854 0.0166828
0 0.0045263 0.0160846 0 -0.00319452 0.016524 0 0.00320133 0.016529 0
-0.00345386 -0.0165523 0 0.00345386 -0.0165523 0 -0.0138571 0.0098326 0 -0.00597213
0.0159359 0 0.00598764 0.0159474 0 -0.0154877 0.00710071 0 0.0139177 0.00987937
0 -0.00176404 -0.0169864 0 0.00176404 -0.0169864 0 0.0155453 0.00714543 0
-2.76391e-19 -0.0171343 0 -0.0171658 -0.000247278 0 0.0172162 -0.000207752 0 -0.0171658
0.00147028 0 -0.0154877 -0.0075518 0 0.0155453 -0.00750615 0 0.0172162 0.00150971
0 -0.0171658 -0.00209519 0 0.0172162 -0.00205556 0 0.0107879 -0.0135925 0
-0.0107333 -0.0136359 0 -0.00451419 0.0167597 0 0.0045263 0.0167686 0 -0.002
0.0173062 0 0.002 0.0173062 0 -0.0171658 0.00306667 0 -0.0122727 -0.0124125
0 0.00928347 -0.0147881 0 0.0123323 -0.0123652 0 -0.00923755 -0.0148246 0
0.0172162 0.00310601 0 -0.0154877 0.00821012 0 -0.00597213 0.0165208 0 0.00598764
0.0165323 0 0.0155453 0.00825477 0 -0.00319452 0.017324 0 0.00320133 0.017329
0 -0.0171658 -0.00408336 0 -0.000723266 0.0176555 0 0.000723266 0.0176555 0
0.0172162 -0.00404362 0 -0.0171658 0.00455044 0 0.00781802 -0.0159527 0 -0.00778421
-0.0159796 0 -0.0138571 -0.0111534 0 0.0139177 -0.0111052 0 0.0172162 0.0045897
0 -0.0154877 0.00924127 0 -0.00451419 0.0174994 0 0.0045263 0.0175084 0
0.0155453 0.00928585 0 -0.0171658 0.00592954 0 -0.00597213 0.0171533 0 0.00598764
0.0171648 0 0.0172162 0.00596872 0 0.00639053 -0.0170872 0 -0.00637208 -0.0171018
0 -0.0171658 -0.00622243 0 0.0172162 -0.00618257 0 -0.002 0.0182418 0
0.002 0.0182418 0 -0.0154877 -0.00985753 0 0.0155453 -0.00981172 0 -0.00319452
0.0181891 0 0.00320133 0.0181941 0 -0.0154877 0.0101997 0 0.0155453 0.0102442
0 -0.0171658 0.00721136 0 0.0172162 0.00725047 0 -0.000719385 0.0187075 0
0.000719385 0.0187075 0 -0.00758282 0.0171264 0 0.00759938 0.0171387 0 -0.00597213
0.0178373 0 0.00598764 0.0178488 0 -0.00451419 0.0182994 0 0.0045263 0.0183083
0 -0.005 -0.0181922 0 0.005 -0.0181922 0 -0.018893 -0.00073496 0
-0.018893 0.0011094 0 0.0189314 -0.000704684 0 0.0189314 0.0011396 0 -0.0154877
0.0110905 0 -0.018893 -0.0027193 0 -0.018893 0.00282365 0 -0.0171658 0.00840275
0 0.0189314 -0.00268894 0 0.0155453 0.0111349 0 0.0189314 0.00285377 0
-0.00344538 -0.0188361 0 0.00344538 -0.0188361 0 -0.0171658 -0.00852385 0 0.0172162
0.00844179 0 0.0172162 -0.00848386 0 -0.00758282 0.0177113 0 0.00759938 0.0177235
0 -0.0122727 -0.0149021 0 0.0123323 -0.0148546 0 -0.00175719 -0.0192397 0
[...]
CELL_DATA 15677
FIELD attributes 1
U 3 15677 float
-0.304872 10.2652 0 0.190479 10.9192 0 -0.101144 9.44659 0 0.0315585 10.9901
0 0.118855 10.7323 0 -0.0119231 8.75809 0 0.0455312 11.0075 0
0.0145007 10.9815 0 0.0577265 10.4717 0 0.011537 8.22883 0 0.0466994
11.0122 0 0.0434096 11.031 0 0.0261146 10.9284 0 0.0319242 10.1903
0 0.011331 7.85535 0 0.0440165 11.0135 0 0.0424345 11.0438 0
0.0428402 11.0207 0 0.0332687 10.8599 0 0.0213905 9.90217 0 0.00645029
7.61089 0 0.0413814 11.0136 0 0.0404814 11.0462 0 0.0402534 11.0447
0 0.0399403 11.0045 0 0.032863 10.7685 0 0.0159749 9.63651 0
0.00251602 7.45742 0 0.0386411 11.0131 0 0.0390314 11.0453 0 0.0394425
11.0531 0 0.0385669 11.0442 0 0.0359087 10.982 0 0.0289008 10.6561
0 0.0121857 9.41104 0 0.000575533 7.36061 0 0.0356163 11.0123 0
0.0374263 11.0435 0 0.0387904 11.0558 0 0.0385332 11.0583 0 0.0361327
11.0415 0 0.0319109 10.9519 0 0.0241285 10.5313 0 0.00904694 9.23571
0 2.87271e-05 7.29816 0 0.0323349 11.0113 0 0.0355262 11.041 0
0.0377194 11.0555 0 0.0379939 11.0636 0 0.0362248 11.0627 0 0.033011
11.0355 0 0.028497 10.9161 0 0.0195417 10.3964 0 0.00648933 9.10461
0 -0.000223724 7.25525 0 0.0288593 11.0101 0 0.0334071 11.0381 0
0.0363419 11.0538 0 0.0370733 11.0649 0 0.0356928 11.0711 0 0.0330863
11.0654 0 0.0299266 11.0277 0 0.025499 10.8743 0 0.0155199 10.2673
0 0.00443874 9.0094 0 -0.00045281 7.23043 0 0.0252699 11.009 0
0.0310918 11.0348 0 0.034708 11.0512 0 0.0358837 11.064 0 0.0348146
11.074 0 0.0325655 11.0775 0 0.0299148 11.0675 0 0.0269498 11.0197
0 0.0222997 10.8286 0 0.0119037 10.1568 0 0.00270238 8.94311 0
-0.000657642 7.21851 0 0.0215391 11.0078 0 0.0285825 11.0312 0 0.0328104
11.0479 0 0.034433 11.0619 0 0.0336521 11.074 0 0.031657 11.0824
0 0.0292908 11.0841 0 0.0267828 11.0709 0 0.023673 11.0125 0
0.0186124 10.7822 0 0.00851593 10.0676 0 0.00113872 8.90067 0 -0.00107083
7.22013 0 0.017838 11.0065 0 0.0260064 11.0273 0 0.0306343 11.0441
0 0.0327061 11.0588 0 0.0322098 11.0725 0 0.0304156 11.0835 0
0.0281999 11.0911 0 0.0259019 11.0922 0 0.0233116 11.0765 0 0.0199986
11.0067 0 0.014502 10.7382 0 0.00521647 10.002 0 -0.000489568 8.87926
0 -0.00168757 7.23502 0 0.0146402 11.0053 0 0.0233403 11.0233 0
0.0282133 11.0397 0 0.0306858 11.055 0 0.0304793 11.0697 0 0.0288581
11.0826 0 0.0267135 11.0936 0 0.0244562 11.1017 0 0.0220281 11.1031
0 0.0193054 11.0852 0 0.0158225 11.0035 0 0.0100385 10.7019 0
0.00175973 9.95909 0 -0.00216065 8.87689 0 -0.00235209 7.26352 0 0.0120661
11.0043 0 0.0208195 11.0196 0 0.0255723 11.0349 0 0.0283598 11.0504
0 0.0284452 11.066 0 0.0269803 11.0802 0 0.0248578 11.0933 0
0.0225387 11.1054 0 0.02007 11.1151 0 0.01745 11.1174 0 0.0145801
11.0977 0 0.010941 11.0047 0 0.00516386 10.6764 0 -0.0018166 9.93791
0 -0.00404399 8.89283 0 -0.00317418 7.30577 0 0.00991187 11.0034 0
0.0185717 11.0163 0 0.0230116 11.0304 0 0.0257324 11.0453 0 0.0260882
11.0614 0 0.0247661 11.0767 0 0.0226311 11.0914 0 0.0201789 11.1059
0 0.0175455 11.1201 0 0.0148034 11.1319 0 0.0119793 11.1359 0
0.00895118 11.1152 0 0.00526221 11.0119 0 -0.000182061 10.6642 0 -0.00566914
9.93745 0 -0.00612549 8.92603 0 -0.00408692 7.36198 0 0.00827682 11.0027
0 0.0166004 11.0135 0 0.0207021 11.0264 0 0.0231081 11.0403 0
0.0233981 11.056 0 0.022195 11.0722 0 0.0200184 11.0881 0 0.0173755
11.1044 0 0.0144828 11.1213 0 0.0114719 11.1383 0 0.00844339 11.1532
0 0.00541475 11.1597 0 0.00230692 11.1386 0 -0.00124801 11.0268 0
-0.00602824 10.6665 0 -0.00984351 9.95676 0 -0.00841729 8.97644 0 -0.0050811
7.43192 0 0.00689612 11.0021 0 0.0146784 11.0112 0 0.0185585 11.0229
0 0.0206867 11.0358 0 0.0206709 11.0505 0 0.0192528 11.0667 0
0.0170007 11.0836 0 0.0141147 11.1012 0 0.0108778 11.12 0 0.00748032
11.1402 0 0.0040743 11.1609 0 0.000761406 11.1797 0 -0.00239926 11.1896
0 -0.00543403 11.169 0 -0.00861252 11.0511 0 -0.0124148 10.6846 0
-0.0143736 9.99491 0 -0.0109042 9.04326 0 -0.00614338 7.51541 0 0.00577148
11.0017 0 0.0130138 11.0093 0 0.0165794 11.0199 0 0.0184004 11.0317
0 0.0181241 11.0455 0 0.016259 11.0609 0 0.0135653 11.0779 0
0.0103813 11.0967 0 0.00671646 11.1169 0 0.00281987 11.1391 0 -0.00110614
11.1633 0 -0.00490432 11.1886 0 -0.00843229 11.2122 0 -0.0115814 11.2263
0 -0.0143282 11.2075 0 -0.0168592 11.0861 0 -0.0193564 10.7188 0
-0.0192565 10.0513 0 -0.0135792 9.12603 0 -0.00725432 7.61177 0 0.00484902
11.0014 0 0.0115044 11.0077 0 0.0147608 11.0173 0 0.0162704 11.0281
0 0.0157091 11.0409 0 0.0134592 11.0554 0 0.0100843 11.0718 0
0.00616878 11.0907 0 0.00198616 11.1121 0 -0.002527 11.1359 0 -0.00711439
11.1624 0 -0.011566 11.1915 0 -0.0156852 11.2223 0 -0.0192815 11.2516
0 -0.0222118 11.2708 0 -0.0244165 11.255 0 -0.0259894 11.1326 0
-0.0268385 10.7694 0 -0.0244728 10.1249 0 -0.0164182 9.22397 0 -0.00841577
7.72035 0 0.00411748 11.0011 0 0.0101497 11.0065 0 0.0131033 11.0151
0 0.0142896 11.0249 0 0.0134484 11.0366 0 0.0108104 11.0502 0
0.00684213 11.0658 0 0.00193449 11.0841 0 -0.00331029 11.1057 0 -0.00857119
11.1308 0 -0.0139743 11.1589 0 -0.019252 11.1906 0 -0.0241563 11.2256
0 -0.0284442 11.2628 0 -0.0318944 11.2986 0 -0.034346 11.3239 0
-0.0357022 11.3123 0 -0.0359738 11.1915 0 -0.034835 10.836 0 -0.0300019
10.215 0 -0.0194065 9.33634 0 -0.00960728 7.8404 0 0.00355623 11.0009
0 0.00898642 11.0055 0 0.0115946 11.0132 0 0.0124714 11.0221 0
0.0113505 11.0328 0 0.00833953 11.0453 0 0.00379177 11.0599 0 -0.00198115
11.0774 0 -0.00859314 11.0984 0 -0.0152996 11.1237 0 -0.021697 11.1533
0 -0.027996 11.1868 0 -0.0338912 11.2246 0 -0.0390895 11.2664 0
-0.0433178 11.3107 0 -0.0463444 11.3539 0 -0.0479951 11.3861 0 -0.0481505
11.3799 0 -0.0467521 11.263 0 -0.0433035 10.9184 0 -0.0358052 10.3206
0 -0.0225025 9.46207 0 -0.0107977 7.97074 0 0.00312089 11.0008 0
0.00803371 11.0048 0 0.0102849 11.0116 0 0.010812 11.0196 0 0.00942748
11.0293 0 0.00606524 11.0407 0 0.000967783 11.0543 0 -0.00563683 11.0707
0 -0.0134454 11.0909 0 -0.0219703 11.1154 0 -0.0302584 11.1453 0
-0.0378117 11.1803 0 -0.0449375 11.2202 0 -0.0512857 11.2651 0 -0.0565335
11.3145 0 -0.0604003 11.3669 0 -0.0626526 11.4181 0 -0.0631237 11.458
0 -0.0616901 11.4582 0 -0.0582439 11.3473 0 -0.0521795 11.0155 0
-0.0418105 10.4403 0 -0.0256567 9.59988 0 -0.0119734 8.11009 0 0.00277711
11.0007 0 0.00725458 11.0042 0 0.00919996 11.0103 0 0.00937389 11.0175
0 0.00768313 11.0261 0 0.00400178 11.0365 0 -0.00160318 11.0489 0
-0.0089902 11.0642 0 -0.0179428 11.0831 0 -0.0280634 11.1067 0 -0.0387096
11.1357 0 -0.0486637 11.1711 0 -0.0573145 11.2128 0 -0.0650998 11.26
0 -0.0716401 11.3128 0 -0.0766067 11.3706 0 -0.0797261 11.4317 0
-0.0807877 11.4917 0 -0.0796503 11.5398 0 -0.0762083 11.5474 0 -0.0703301
11.444 0 -0.0613548 11.1267 0 -0.0479594 10.5729 0 -0.0288314 9.74843
0 -0.0131234 8.25715 0 0.00250129 11.0006 0 0.00661295 11.0038 0
0.00830272 11.0093 0 0.00819099 11.0157 0 0.00618665 11.0233 0 0.00215805
11.0326 0 -0.00390153 11.0438 0 -0.0120062 11.0578 0 -0.0220323 11.0754
0 -0.0336776 11.0976 0 -0.0463982 11.1256 0 -0.0593461 11.16 0
-0.0709762 11.2021 0 -0.0805611 11.2513 0 -0.0887305 11.3068 0 -0.0951022
11.3684 0 -0.0993609 11.4353 0 -0.101267 11.5057 0 -0.100658 11.5748
0 -0.0974457 11.6316 0 -0.0915743 11.6472 0 -0.0828879 11.5526 0
-0.0707222 11.2505 0 -0.0541793 10.7171 0 -0.0319907 9.90626 0 -0.0142273
8.41051 0 0.00227697 11.0005 0 0.00608093 11.0034 0 0.00755616 11.0085
0 0.00722026 11.0143 0 0.00497235 11.021 0 0.00060844 11.0291 0
-0.00591338 11.039 0 -0.0146583 11.0516 0 -0.0256694 11.0677 0 -0.0387471
11.0884 0 -0.0534521 11.1148 0 -0.0690401 11.148 0 -0.0844045 11.189
0 -0.0976153 11.2388 0 -0.10785 11.2966 0 -0.116013 11.3612 0
-0.121743 11.4324 0 -0.124771 11.5091 0 -0.124925 11.5891 0 -0.122123
11.6677 0 -0.11635 11.7333 0 -0.107608 11.7573 0 -0.0957766 11.6724
0 -0.0801942 11.3857 0 -0.0603909 10.8713 0 -0.035096 10.0718 0
-0.0152734 8.56872 0 0.0020924 11.0005 0 0.00563693 11.0031 0 0.00693136
11.0079 0 0.00642322 11.0131 0 0.00399557 11.0191 0 -0.000616894 11.0261
0 -0.00755668 11.0346 0 -0.0169271 11.0456 0 -0.028819 11.0601 0
-0.0432151 11.0791 0 -0.0597897 11.1037 0 -0.0779103 11.1352 0 -0.0965747
11.1748 0 -0.11437 11.2233 0 -0.128938 11.2819 0 -0.139407 11.3493
0 -0.147044 11.424 0 -0.151552 11.5053 0 -0.152744 11.5921 0
-0.150547 11.682 0 -0.144986 11.7701 0 -0.136151 11.8447 0 -0.124124
11.8772 0 -0.108833 11.8023 0 -0.0896574 11.5308 0 -0.0665198 11.0339
0 -0.0381143 10.2436 0 -0.016264 8.73038 0 0.00193898 11.0005 0
0.00526406 11.0029 0 0.00640549 11.0073 0 0.0057638 11.0121 0 0.00320634
11.0175 0 -0.00157313 11.0236 0 -0.00880858 11.0309 0 -0.0187199 11.0402
0 -0.0314542 11.0527 0 -0.0470354 11.0697 0 -0.0653386 11.0923 0
-0.0858546 11.1217 0 -0.107697 11.1594 0 -0.129551 11.2065 0 -0.149664
11.2637 0 -0.165226 11.3322 0 -0.17537 11.4101 0 -0.181834 11.4954
0 -0.184427 11.5874 0 -0.183092 11.6846 0 -0.177898 11.7844 0
-0.169004 11.8818 0 -0.156615 11.9651 0 -0.140923 12.006 0 -0.121904
11.9412 0 -0.0990003 11.6844 0 -0.0725033 11.2032 0 -0.0410253 10.4199
0 -0.0171147 8.89439 0 0.00181033 11.0004 0 0.00494904 11.0027 0
0.00596052 11.0068 0 0.00521646 11.0113 0 0.00256951 11.0161 0 -0.00231668
11.0215 0 -0.0097406 11.0276 0 -0.0200249 11.0354 0 -0.0334681 11.0458
0 -0.0501716 11.0605 0 -0.0700382 11.0808 0 -0.0927808 11.1078 0
-0.117644 11.1431 0 -0.143426 11.1881 0 -0.168458 11.2438 0 -0.190634
11.3109 0 -0.206665 11.3902 0 -0.215757 11.4795 0 -0.220264 11.576
0 -0.22016 11.6788 0 -0.215558 11.7864 0 -0.2067 11.896 0
-0.193902 12.0023 0 -0.177501 12.0939 0 -0.157802 12.1429 0 -0.134847
12.0878 0 -0.108123 11.8449 0 -0.0782983 11.3777 0 -0.0437605 10.5996
0 -0.0184161 9.05796 0 0.00170164 11.0004 0 0.00468138 11.0025 0
0.00558211 11.0064 0 0.00476024 11.0105 0 0.00205369 11.015 0 -0.00289191
11.0197 0 -0.0104225 11.0249 0 -0.0209367 11.0312 0 -0.0348625 11.0397
0 -0.0524964 11.0518 0 -0.0738396 11.0692 0 -0.0986101 11.0936 0
-0.126298 11.1261 0 -0.155833 11.1684 0 -0.185651 11.2218 0 -0.213708
11.2873 0 -0.237507 11.3653 0 -0.253293 11.4564 0 -0.260464 11.5577
0 -0.262127 11.6657 0 -0.258475 11.7795 0 -0.249833 11.8973 0
-0.236642 12.0163 0 -0.219389 12.1311 0 -0.198557 12.2302 0 -0.174564
12.2867 0 -0.147519 12.2409 0 -0.116954 12.0108 0 -0.0838336 11.5561
0 -0.046948 10.7803 0 -0.0196325 9.25063 0 0.00160917 11.0004 0
0.00445277 11.0024 0 0.00525878 11.0061 0 0.00437832 11.0099 0 0.00163495
11.014 0 -0.00333486 11.0181 0 -0.0109104 11.0225 0 -0.0215452 11.0276
0 -0.0357637 11.0344 0 -0.0540284 11.044 0 -0.0765878 11.0583 0
-0.103277 11.0792 0 -0.133558 11.1086 0 -0.166627 11.1478 0 -0.201047
11.1982 0 -0.234856 11.2613 0 -0.265579 11.3377 0 -0.290376 11.4276
0 -0.305036 11.5313 0 -0.30928 11.645 0 -0.30712 11.7648 0
-0.299019 11.8894 0 -0.285548 12.017 0 -0.26737 12.1447 0 -0.245159
12.2672 0 -0.219534 12.3732 0 -0.191021 12.4364 0 -0.159813 12.399
0 -0.125401 12.1807 0 -0.0894908 11.7361 0 -0.04975 10.9824 0
-0.0199476 9.44859 0 0.00152999 11.0003 0 0.00425654 11.0023 0 0.00498125
11.0058 0 0.00405726 11.0094 0 0.00129411 11.0131 0 -0.00367397 11.0167
0 -0.0112489 11.0204 0 -0.0219224 11.0245 0 -0.0362884 11.0297 0
-0.0549346 11.0372 0 -0.0783206 11.0484 0 -0.10659 11.0655 0 -0.139337
11.0908 0 -0.175675 11.1263 0 -0.214461 11.1732 0 -0.253837 11.2331
0 -0.29138 11.3071 0 -0.32422 11.3956 0 -0.349195 11.4983 0
-0.361684 11.6152 0 -0.361872 11.7416 0 -0.354837 11.873 0 -0.34136
12.008 0 -0.322288 12.1448 0 -0.298518 12.2804 0 -0.270905 12.4097
0 -0.240193 12.5217 0 -0.207018 12.5906 0 -0.171602 12.5609 0
-0.133667 12.3526 0 -0.0948615 11.9374 0 -0.0515692 11.2039 0 -0.0203404
9.6421 0 0.00146173 11.0003 0 0.00408727 11.0022 0 0.00474199 11.0056
0 0.0037863 11.009 0 0.00101589 11.0123 0 -0.00393182 11.0155 0
-0.0114734 11.0186 0 -0.0221254 11.0217 0 -0.0365304 11.0257 0 -0.0553673
11.0312 0 -0.0792564 11.0397 0 -0.108607 11.053 0 -0.143392 11.0736
0 -0.182864 11.1044 0 -0.225725 11.1472 0 -0.270421 11.2032 0
-0.314616 11.2738 0 -0.355436 11.3599 0 -0.389632 11.4614 0 -0.413766
11.5777 0 -0.422878 11.7082 0 -0.417788 11.8473 0 -0.40479 11.99
0 -0.385022 12.1349 0 -0.359621 12.28 0 -0.329718 12.4227 0
-0.296332 12.5578 0 -0.260328 12.6746 0 -0.222395 12.7484 0 -0.182957
12.7249 0 -0.141943 12.5452 0 -0.0996282 12.159 0 -0.0535594 11.4216
0 -0.0207606 9.82907 0 0.00140311 11.0003 0 0.00394037 11.0021 0
0.00453585 11.0054 0 0.00355678 11.0086 0 0.000788136 11.0117 0 -0.00412628
11.0145 0 -0.0116115 11.017 0 -0.0221992 11.0193 0 -0.0365637 11.0221
0 -0.0554482 11.0259 0 -0.0795923 11.032 0 -0.10961 11.0419 0
-0.145805 11.058 0 -0.187887 11.0831 0 -0.234688 11.1204 0 -0.284398
11.1718 0 -0.335002 11.2382 0 -0.383669 11.3208 0 -0.427081 11.4202
0 -0.461642 11.5357 0 -0.483728 11.6661 0 -0.48813 11.8103 0
-0.476482 11.962 0 -0.456431 12.1154 0 -0.429498 12.2693 0 -0.397108
12.4219 0 -0.360611 12.5705 0 -0.321176 12.7102 0 -0.279735 12.8309
0 -0.237107 12.9081 0 -0.194569 12.9089 0 -0.149785 12.7577 0
-0.104181 12.3774 0 -0.0554695 11.6328 0 -0.0211085 10.0082 0 0.00381228
11.002 0 0.00133203 11.0003 0 0.00435627 11.0052 0 0.0033616 11.0082
0 0.000601304 11.0111 0 -0.00427141 11.0136 0 -0.011685 11.0156 0
-0.0221789 11.0172 0 -0.0364462 11.0189 0 -0.0552735 11.0212 0 -0.0794863
11.0251 0 -0.109853 11.0321 0 -0.146933 11.044 0 -0.190844 11.0636
0 -0.24096 11.0942 0 -0.295573 11.1393 0 -0.352274 11.2007 0
-0.408569 11.2789 0 -0.461119 11.3749 0 -0.506184 11.4885 0 -0.5399
11.6187 0 -0.558569 11.7636 0 -0.556838 11.9215 0 -0.53733 12.0851
0 -0.509173 12.2485 0 -0.47427 12.4104 0 -0.43432 12.5693 0
-0.390867 12.7227 0 -0.345183 12.866 0 -0.298281 12.989 0 -0.25236
13.0874 0 -0.205914 13.112 0 -0.156918 12.9676 0 -0.108297 12.5902
0 -0.0570982 11.836 0 -0.0213655 10.1789 0 0.00419617 11.005 0
0.00366075 11.0019 0 0.00124571 11.0003 0 0.00319437 11.0079 0 0.000447762
11.0106 0 -0.00437804 11.0128 0 -0.0117109 11.0144 0 -0.0220916 11.0154
0 -0.0362229 11.0162 0 -0.0549185 11.0171 0 -0.079063 11.0191 0
-0.109537 11.0233 0 -0.147098 11.0316 0 -0.192182 11.0461 0 -0.244656
11.0702 0 -0.303445 11.1074 0 -0.366181 11.1616 0 -0.429809 11.2345
0 -0.491325 11.326 0 -0.546896 11.4364 0 -0.592427 11.5653 0
-0.623891 11.7108 0 -0.637641 11.8701 0 -0.628299 12.0413 0 -0.599653
12.2162 0 -0.562406 12.3886 0 -0.518823 12.5574 0 -0.470852 12.7214
0 -0.420175 12.8784 0 -0.368149 13.0238 0 -0.317658 13.1666 0
-0.26754 13.2853 0 -0.216119 13.3127 0 -0.163289 13.1724 0 -0.111819
12.7956 0 -0.0584353 12.0303 0 -0.0215248 10.3408 0 0.00304588 11.0077
0 0.00401871 11.0048 0 0.00346782 11.0018 0 0.00116301 11.0002 4.28392e-19
0.000319994 11.0102 0 -0.00445446 11.0121 0 -0.0117018 11.0133 0 -0.0219584
11.0138 0 -0.0359283 11.0137 0 -0.0544411 11.0135 0 -0.0784194 11.0138
0 -0.108824 11.0156 0 -0.146558 11.0205 0 -0.192305 11.0305 0
-0.246328 11.0485 0 -0.308134 11.078 0 -0.376085 11.1231 0 -0.447068
11.1881 0 -0.517294 11.2739 0 -0.583276 11.38 0 -0.640734 11.5061
0 -0.685311 11.6509 0 -0.712944 11.8119 0 -0.720182 11.9855 0
-0.701746 12.1694 0 -0.662747 12.3546 0 -0.615523 12.5348 0 -0.562671
12.7093 0 -0.506324 12.8771 0 -0.448264 13.0362 0 -0.392261 13.201
0 -0.337191 13.3627 0 -0.281161 13.481 0 -0.225225 13.5089 0
-0.16879 13.3706 0 -0.114768 12.9927 0 -0.0594993 12.2153 0 -0.0215899
10.4936 0 0.000203999 11.0098 0 0.00289906 11.0073 0 0.0038061 11.0046
1.87545e-18 0.0032797 11.0017 -1.35632e-18 0.00108345 11.0002 -8.69415e-19 -0.00450869 11.0115 0
-0.0116671 11.0124 0 -0.0217945 11.0124 0 -0.0355891 11.0116 0 -0.0538857
11.0103 0 -0.0776304 11.0091 0 -0.107838 11.0088 0 -0.145516 11.0106
0 -0.191539 11.0166 0 -0.246476 11.0291 0 -0.310312 11.0514 0
-0.382095 11.0876 0 -0.459533 11.1421 0 -0.538626 11.2193 0 -0.614832
11.3197 0 -0.684226 11.4416 0 -0.742167 11.5843 0 -0.784157 11.7455
0 -0.806246 11.922 0 -0.805335 12.1095 0 -0.776364 12.3051 0
-0.725899 12.4995 0 -0.667943 12.6861 0 -0.605355 12.865 0 -0.540403
13.0351 0 -0.477862 13.2136 0 -0.41678 13.3969 0 -0.354762 13.5567
0 -0.293301 13.6725 0 -0.233144 13.699 0 -0.173446 13.5611 0
-0.11719 13.1809 0 -0.0603165 12.3905 0 -0.0215732 10.6371 0 -0.00456195
11.011 0 0.000127238 11.0094 -3.79701e-18 0.00273537 11.0069 -1.97469e-18 0.00360037 11.0043
9.52075e-19 0.00309557 11.0016 -9.17199e-19 0.00100714 11.0002 0 -0.011615 11.0116 0
-0.0216106 11.0111 0 -0.0352243 11.0097 0 -0.0532861 11.0075 0 -0.0767531
11.0049 0 -0.106675 11.0027 0 -0.144133 11.0019 0 -0.190141 11.0042
0 -0.245505 11.0117 0 -0.310591 11.0275 0 -0.385014 11.0553 0
-0.467279 11.0994 0 -0.554285 11.1649 0 -0.641064 11.2559 0 -0.722316
11.3723 0 -0.793771 11.5114 0 -0.850538 11.6713 0 -0.888127 11.8492
0 -0.902873 12.0409 0 -0.892182 12.2415 0 -0.851321 12.4478 0
-0.788417 12.6499 0 -0.719121 12.8417 0 -0.64647 13.0233 0 -0.576428
13.213 0 -0.508156 13.4099 0 -0.438913 13.5907 0 -0.370436 13.7467
0 -0.303905 13.8583 0 -0.239897 13.8819 0 -0.177318 13.7432 0
-0.119132 13.3597 0 -0.0609174 12.5558 0 -0.0214892 10.7716 0 -0.0115772
11.0108 0 -0.00452167 11.0104 7.99176e-18 8.32493e-05 11.0088 0 0.00257844 11.0065
2.00343e-18 0.00340068 11.0041 5.70385e-22 0.00291474 11.0015 0 0.000934032 11.0002 0
-0.0214155 11.01 0 -0.0348463 11.008 0 -0.0526665 11.005 0 -0.075831
11.0013 0 -0.105408 10.9974 0 -0.142531 10.9942 0 -0.188312 10.9932
0 -0.243737 10.9962 0 -0.309468 11.0061 0 -0.385583 11.0261 0
-0.471253 11.0605 0 -0.564283 11.1142 0 -0.660669 11.1922 0 -0.754389
11.2988 0 -0.839429 11.4327 0 -0.911301 11.5898 0 -0.965012 11.7675
0 -0.996256 11.962 0 -1.00182 12.1683 0 -0.979766 12.381 0
-0.925791 12.5965 0 -0.849644 12.805 0 -0.768561 13.0002 0 -0.690078
13.2017 0 -0.613479 13.4101 0 -0.535606 13.6043 0 -0.458686 13.7807
0 -0.384186 13.9311 0 -0.312998 14.0372 0 -0.245563 14.0571 0
-0.180471 13.9165 0 -0.120645 13.5288 0 -0.0613326 12.7112 0 -0.0213506
10.8971 0 -0.0212554 11.009 0 -0.0113694 11.01 5.51727e-22 -0.0043638 11.0096
0 4.1859e-05 11.0082 -2.10859e-18 0.00243035 11.0062 4.12752e-22 0.00320758 11.0039 0
0.00273741 11.0014 0 0.00086433 11.0001 0 -0.0344643 11.0066 0 -0.0520417
11.0028 0 -0.0748948 10.998 0 -0.104094 10.9926 0 -0.140805 10.9874
0 -0.186208 10.9834 0 -0.241424 10.9825 0 -0.307343 10.9869 0
-0.384408 10.9999 0 -0.47234 11.0254 0 -0.569719 11.0679 0 -0.673549
11.1327 0 -0.778815 11.225 0 -0.878394 11.3487 0 -0.965632 11.5013
0 -1.03601 11.6772 0 -1.0846 11.873 0 -1.10748 12.0837 0
-1.10204 12.3037 0 -1.06714 12.5272 0 -0.998985 12.7505 0 -0.90897
12.9635 0 -0.821165 13.1793 0 -0.73511 13.3999 0 -0.647186 13.6056
0 -0.560189 13.795 0 -0.476089 13.9652 0 -0.39605 14.1089 0
-0.320679 14.2087 0 -0.250235 14.2239 0 -0.182979 14.0806 0 -0.121782
13.6881 0 -0.0615885 12.8569 0 -0.0211685 11.0139 0 -0.0341449 11.0053
0 -0.0208195 11.0079 -4.41986e-18 -0.0109158 11.009 0 -0.00421018 11.0088 0
1.3605e-05 11.0077 6.41428e-18 0.00229094 11.0058 0 0.00302091 11.0036 0 0.00256353
11.0013 1.91121e-18 0.000797922 11.0001 0 -0.0514212 11.0009 0 -0.0739623 10.9952
0 -0.102772 10.9884 0 -0.139024 10.9813 0 -0.183949 10.9747 0
-0.238763 10.9702 0 -0.304528 10.9699 0 -0.381974 10.9765 0 -0.471268
10.9937 0 -0.571636 11.0258 0 -0.680961 11.078 0 -0.795334 11.1556
0 -0.908644 11.264 0 -1.01264 11.4064 0 -1.10018 11.5788 0
-1.16691 11.7741 0 -1.20819 11.9877 0 -1.22066 12.2139 0 -1.20249
12.4465 0 -1.15341 12.6794 0 -1.07017 12.9085 0 -0.972296 13.1431
0 -0.875671 13.3786 0 -0.776215 13.5967 0 -0.677451 13.7975 0
-0.5819 13.9805 0 -0.491176 14.1433 0 -0.406141 14.2795 0 -0.327065
14.3722 0 -0.254011 14.3821 0 -0.184915 14.2355 0 -0.12259 13.8379
0 -0.0617105 12.993 0 -0.0209535 11.1225 0 -0.0508999 10.9992 0
-0.0334059 11.0038 0 -0.0199533 11.0067 -4.83032e-18 -0.0104785 11.008 -4.66143e-18 -0.00403752
11.0081 -8.99128e-18 -1.47274e-06 11.0071 0 0.00216021 11.0054 -4.17501e-18 0.00284085 11.0034
-4.02119e-18 0.0023932 11.0012 1.93544e-18 0.000734548 11.0001 0 -0.0730436 10.9927 0
-0.101463 10.9847 0 -0.13724 10.9759 0 -0.181624 10.9671 0 -0.235903
10.9594 0 -0.301267 10.9547 0 -0.378668 10.9556 0 -0.468624 10.9652
0 -0.570897 10.9878 0 -0.684117 11.0281 0 -0.805356 11.0917 0