#           x             T
    -0.118947           300
    -0.118121           300
    -0.117174           300
    -0.116087           300
     -0.11484           300
    -0.113408           300
    -0.111764           300
    -0.109877           300
    -0.107712           300
    -0.105227           300
    -0.102374           300
   -0.0990995           300
   -0.0953416           300
   -0.0914285           300
   -0.0876191           300
   -0.0838095           300
        -0.08           300
   -0.0761904           300
   -0.0723809           300
   -0.0685715           300
   -0.0649271           300
    -0.061624           300
    -0.058655           300
   -0.0559862           300
   -0.0535874           300
   -0.0514313           300
   -0.0494932           300
   -0.0477512           300
   -0.0461853           300
   -0.0447779           300
   -0.0435128           300
   -0.0423757           300
   -0.0413536           300
   -0.0404349           300
     -0.03925           300
     -0.03775           300
     -0.03625           300
     -0.03475           300
     -0.03325           300
     -0.03175           300
     -0.03025           300
     -0.02875           300
     -0.02725           300
     -0.02575           300
   -0.0243994           300
   -0.0231362           300
    -0.021743           300
   -0.0202065           300
   -0.0189203           300
   -0.0180315           300
   -0.0166427           300
   -0.0145812           300
    -0.012414           300
   -0.0110231           300
   -0.0100402           300
  -0.00847254           300
  -0.00677747           300
  -0.00524316           300
  -0.00385435           300
  -0.00288618           300
  -0.00228892           300
  -0.00133333           300
            0           300
   0.00133333           300
     0.002289           300
   0.00288966           300
   0.00386381           300
   0.00525697           300
   0.00679351           300
    0.0084882           300
    0.0100473           300
    0.0110276           300
    0.0124188           300
    0.0145859           300
    0.0166548           300
    0.0180384           300
    0.0189282           300
    0.0202225           300
    0.0217568           300
    0.0231456           300
    0.0244027           300
      0.02575           300
      0.02725           300
      0.02875           300
      0.03025           300
      0.03175           300
      0.03325           300
      0.03475           300
      0.03625           300
      0.03775           300
      0.03925           300
    0.0404349           300
    0.0413536           300
    0.0423757           300
    0.0435128           300
    0.0447779           300
    0.0461853           300
    0.0477511           300
    0.0494932           300
    0.0514312           300
    0.0535874           300
    0.0559862           300
    0.0586549           300
     0.061624           300
    0.0649271           300
    0.0685714           300
    0.0723809           300
    0.0761904           300
         0.08           300
    0.0838095           300
     0.087619           300
    0.0914285           300
    0.0953419           300
    0.0991002           300
     0.102374           300
     0.105227           300
     0.107713           300
     0.109878           300
     0.111765           300
     0.113408           300
      0.11484           300
     0.116088           300
     0.117175           300
     0.118122           300
     0.118947           300
     0.119665           300
