%!PS-Adobe-3.0 EPSF-3.0
%%LanguageLevel: 3
%%Title: line140mm_0.12.eps
%%Creator: Matplotlib v3.10.0, https://matplotlib.org/
%%CreationDate: Mon Feb 17 10:46:13 2025
%%Orientation: portrait
%%BoundingBox: 0 0 461 346
%%HiResBoundingBox: 0.000000 0.000000 460.800000 345.600000
%%EndComments
%%BeginProlog
/mpldict 9 dict def
mpldict begin
/_d { bind def } bind def
/m { moveto } _d
/l { lineto } _d
/r { rlineto } _d
/c { curveto } _d
/cl { closepath } _d
/ce { closepath eofill } _d
/sc { setcachedevice } _d
%!PS-Adobe-3.0 Resource-Font
%%Creator: Converted from TrueType to Type 3 by Matplotlib.
10 dict begin
/FontName /DejaVuSans def
/PaintType 0 def
/FontMatrix [0.00048828125 0 0 0.00048828125 0 0] def
/FontBBox [-2090 -948 3673 2524] def
/FontType 3 def
/Encoding [/minus /space /parenleft /parenright /period /slash /zero /one /two /four /five /at /P /U /V /bracketleft /bracketright /underscore /c /e /f /i /l /m /n /o /r /s /t /x /y /z] def
/CharStrings 33 dict dup begin
/.notdef 0 def
/minus{1716 0 217 557 1499 727 sc
217 727 m
1499 727 l
1499 557 l
217 557 l
217 727 l

ce} _d
/space{651 0 0 0 0 0 sc
ce} _d
/parenleft{799 0 176 -270 635 1554 sc
635 1554 m
546 1401 479 1249 436 1099 c
393 949 371 797 371 643 c
371 489 393 336 436 185 c
480 34 546 -117 635 -270 c
475 -270 l
375 -113 300 41 250 192 c
201 343 176 494 176 643 c
176 792 201 941 250 1092 c
299 1243 374 1397 475 1554 c
635 1554 l

ce} _d
/parenright{799 0 164 -270 623 1554 sc
164 1554 m
324 1554 l
424 1397 499 1243 548 1092 c
598 941 623 792 623 643 c
623 494 598 343 548 192 c
499 41 424 -113 324 -270 c
164 -270 l
253 -117 319 34 362 185 c
406 336 428 489 428 643 c
428 797 406 949 362 1099 c
319 1249 253 1401 164 1554 c

ce} _d
/period{651 0 219 0 430 254 sc
219 254 m
430 254 l
430 0 l
219 0 l
219 254 l

ce} _d
/slash{690 0 0 -190 690 1493 sc
520 1493 m
690 1493 l
170 -190 l
0 -190 l
520 1493 l

ce} _d
/zero{1303 0 135 -29 1167 1520 sc
651 1360 m
547 1360 469 1309 416 1206 c
364 1104 338 950 338 745 c
338 540 364 387 416 284 c
469 182 547 131 651 131 c
756 131 834 182 886 284 c
939 387 965 540 965 745 c
965 950 939 1104 886 1206 c
834 1309 756 1360 651 1360 c

651 1520 m
818 1520 946 1454 1034 1321 c
1123 1189 1167 997 1167 745 c
1167 494 1123 302 1034 169 c
946 37 818 -29 651 -29 c
484 -29 356 37 267 169 c
179 302 135 494 135 745 c
135 997 179 1189 267 1321 c
356 1454 484 1520 651 1520 c

ce} _d
/one{1303 0 225 0 1114 1493 sc
254 170 m
584 170 l
584 1309 l
225 1237 l
225 1421 l
582 1493 l
784 1493 l
784 170 l
1114 170 l
1114 0 l
254 0 l
254 170 l

ce} _d
/two{1303 0 150 0 1098 1520 sc
393 170 m
1098 170 l
1098 0 l
150 0 l
150 170 l
227 249 331 356 463 489 c
596 623 679 709 713 748 c
778 821 823 882 848 932 c
874 983 887 1032 887 1081 c
887 1160 859 1225 803 1275 c
748 1325 675 1350 586 1350 c
523 1350 456 1339 385 1317 c
315 1295 240 1262 160 1217 c
160 1421 l
241 1454 317 1478 388 1495 c
459 1512 523 1520 582 1520 c
737 1520 860 1481 952 1404 c
1044 1327 1090 1223 1090 1094 c
1090 1033 1078 974 1055 919 c
1032 864 991 800 930 725 c
913 706 860 650 771 557 c
682 465 556 336 393 170 c

ce} _d
/four{1303 0 100 0 1188 1493 sc
774 1317 m
264 520 l
774 520 l
774 1317 l

721 1493 m
975 1493 l
975 520 l
1188 520 l
1188 352 l
975 352 l
975 0 l
774 0 l
774 352 l
100 352 l
100 547 l
721 1493 l

ce} _d
/five{1303 0 158 -29 1124 1493 sc
221 1493 m
1014 1493 l
1014 1323 l
406 1323 l
406 957 l
435 967 465 974 494 979 c
523 984 553 987 582 987 c
749 987 881 941 978 850 c
1075 759 1124 635 1124 479 c
1124 318 1074 193 974 104 c
874 15 733 -29 551 -29 c
488 -29 424 -24 359 -13 c
294 -2 227 14 158 35 c
158 238 l
218 205 280 181 344 165 c
408 149 476 141 547 141 c
662 141 754 171 821 232 c
888 293 922 375 922 479 c
922 583 888 665 821 726 c
754 787 662 817 547 817 c
493 817 439 811 385 799 c
332 787 277 768 221 743 c
221 1493 l

ce} _d
/at{2048 0 135 -356 1905 1442 sc
762 537 m
762 442 786 367 833 312 c
880 258 945 231 1028 231 c
1110 231 1174 258 1221 313 c
1268 368 1292 442 1292 537 c
1292 630 1268 704 1220 759 c
1172 814 1107 842 1026 842 c
945 842 881 815 833 760 c
786 705 762 631 762 537 c

1307 238 m
1267 187 1221 149 1169 124 c
1118 100 1058 88 989 88 c
874 88 781 129 709 212 c
638 295 602 404 602 537 c
602 670 638 779 710 862 c
782 945 875 987 989 987 c
1058 987 1118 974 1170 949 c
1222 924 1268 887 1307 836 c
1307 967 l
1450 967 l
1450 231 l
1547 246 1623 290 1678 364 c
1733 439 1761 535 1761 653 c
1761 724 1750 791 1729 854 c
1708 917 1677 975 1634 1028 c
1565 1115 1480 1182 1380 1228 c
1281 1275 1172 1298 1055 1298 c
973 1298 894 1287 819 1265 c
744 1244 674 1212 610 1169 c
505 1101 423 1012 364 901 c
305 791 276 672 276 543 c
276 437 295 338 333 245 c
372 152 427 71 500 0 c
570 -69 651 -122 743 -158 c
835 -195 933 -213 1038 -213 c
1124 -213 1208 -198 1291 -169 c
1374 -140 1451 -99 1520 -45 c
1610 -156 l
1527 -221 1436 -270 1337 -304 c
1239 -339 1139 -356 1038 -356 c
915 -356 798 -334 689 -290 c
580 -247 482 -183 397 -100 c
312 -17 247 80 202 189 c
157 299 135 417 135 543 c
135 664 158 780 203 890 c
248 1000 313 1097 397 1180 c
483 1265 582 1329 695 1374 c
808 1419 927 1442 1053 1442 c
1194 1442 1325 1413 1446 1355 c
1567 1297 1669 1215 1751 1108 c
1801 1043 1839 972 1865 895 c
1892 818 1905 739 1905 657 c
1905 482 1852 343 1746 242 c
1640 141 1494 88 1307 84 c
1307 238 l

ce} _d
/P{1235 0 201 0 1165 1493 sc
403 1327 m
403 766 l
657 766 l
751 766 824 790 875 839 c
926 888 952 957 952 1047 c
952 1136 926 1205 875 1254 c
824 1303 751 1327 657 1327 c
403 1327 l

201 1493 m
657 1493 l
824 1493 951 1455 1036 1379 c
1122 1304 1165 1193 1165 1047 c
1165 900 1122 788 1036 713 c
951 638 824 600 657 600 c
403 600 l
403 0 l
201 0 l
201 1493 l

ce} _d
/U{1499 0 178 -29 1321 1493 sc
178 1493 m
381 1493 l
381 586 l
381 426 410 311 468 240 c
526 170 620 135 750 135 c
879 135 973 170 1031 240 c
1089 311 1118 426 1118 586 c
1118 1493 l
1321 1493 l
1321 561 l
1321 366 1273 219 1176 120 c
1080 21 938 -29 750 -29 c
561 -29 419 21 322 120 c
226 219 178 366 178 561 c
178 1493 l

ce} _d
/V{1401 0 16 0 1384 1493 sc
586 0 m
16 1493 l
227 1493 l
700 236 l
1174 1493 l
1384 1493 l
815 0 l
586 0 l

ce} _d
/bracketleft{799 0 176 -270 600 1556 sc
176 1556 m
600 1556 l
600 1413 l
360 1413 l
360 -127 l
600 -127 l
600 -270 l
176 -270 l
176 1556 l

ce} _d
/bracketright{799 0 199 -270 623 1556 sc
623 1556 m
623 -270 l
199 -270 l
199 -127 l
438 -127 l
438 1413 l
199 1413 l
199 1556 l
623 1556 l

ce} _d
/underscore{1024 0 -20 -483 1044 -340 sc
1044 -340 m
1044 -483 l
-20 -483 l
-20 -340 l
1044 -340 l

ce} _d
/c{1126 0 113 -29 999 1147 sc
999 1077 m
999 905 l
947 934 895 955 842 969 c
790 984 737 991 684 991 c
565 991 472 953 406 877 c
340 802 307 696 307 559 c
307 422 340 316 406 240 c
472 165 565 127 684 127 c
737 127 790 134 842 148 c
895 163 947 184 999 213 c
999 43 l
948 19 894 1 839 -11 c
784 -23 726 -29 664 -29 c
495 -29 361 24 262 130 c
163 236 113 379 113 559 c
113 742 163 885 263 990 c
364 1095 501 1147 676 1147 c
733 1147 788 1141 842 1129 c
896 1118 948 1100 999 1077 c

ce} _d
/e{1260 0 113 -29 1151 1147 sc
1151 606 m
1151 516 l
305 516 l
313 389 351 293 419 226 c
488 160 583 127 705 127 c
776 127 844 136 910 153 c
977 170 1043 196 1108 231 c
1108 57 l
1042 29 974 8 905 -7 c
836 -22 765 -29 694 -29 c
515 -29 374 23 269 127 c
165 231 113 372 113 549 c
113 732 162 878 261 985 c
360 1093 494 1147 662 1147 c
813 1147 932 1098 1019 1001 c
1107 904 1151 773 1151 606 c

967 660 m
966 761 937 841 882 901 c
827 961 755 991 664 991 c
561 991 479 962 417 904 c
356 846 320 764 311 659 c
967 660 l

ce} _d
/f{721 0 47 0 760 1556 sc
760 1556 m
760 1403 l
584 1403 l
518 1403 472 1390 446 1363 c
421 1336 408 1288 408 1219 c
408 1120 l
711 1120 l
711 977 l
408 977 l
408 0 l
223 0 l
223 977 l
47 977 l
47 1120 l
223 1120 l
223 1198 l
223 1323 252 1413 310 1470 c
368 1527 460 1556 586 1556 c
760 1556 l

ce} _d
/i{569 0 193 0 377 1556 sc
193 1120 m
377 1120 l
377 0 l
193 0 l
193 1120 l

193 1556 m
377 1556 l
377 1323 l
193 1323 l
193 1556 l

ce} _d
/l{569 0 193 0 377 1556 sc
193 1556 m
377 1556 l
377 0 l
193 0 l
193 1556 l

ce} _d
/m{1995 0 186 0 1821 1147 sc
1065 905 m
1111 988 1166 1049 1230 1088 c
1294 1127 1369 1147 1456 1147 c
1573 1147 1663 1106 1726 1024 c
1789 943 1821 827 1821 676 c
1821 0 l
1636 0 l
1636 670 l
1636 777 1617 857 1579 909 c
1541 961 1483 987 1405 987 c
1310 987 1234 955 1179 892 c
1124 829 1096 742 1096 633 c
1096 0 l
911 0 l
911 670 l
911 778 892 858 854 909 c
816 961 757 987 678 987 c
584 987 509 955 454 891 c
399 828 371 742 371 633 c
371 0 l
186 0 l
186 1120 l
371 1120 l
371 946 l
413 1015 463 1065 522 1098 c
581 1131 650 1147 731 1147 c
812 1147 881 1126 938 1085 c
995 1044 1038 984 1065 905 c

ce} _d
/n{1298 0 186 0 1124 1147 sc
1124 676 m
1124 0 l
940 0 l
940 670 l
940 776 919 855 878 908 c
837 961 775 987 692 987 c
593 987 514 955 457 892 c
400 829 371 742 371 633 c
371 0 l
186 0 l
186 1120 l
371 1120 l
371 946 l
415 1013 467 1064 526 1097 c
586 1130 655 1147 733 1147 c
862 1147 959 1107 1025 1027 c
1091 948 1124 831 1124 676 c

ce} _d
/o{1253 0 113 -29 1141 1147 sc
627 991 m
528 991 450 952 393 875 c
336 798 307 693 307 559 c
307 425 335 319 392 242 c
449 165 528 127 627 127 c
725 127 803 166 860 243 c
917 320 946 426 946 559 c
946 692 917 797 860 874 c
803 952 725 991 627 991 c

627 1147 m
787 1147 913 1095 1004 991 c
1095 887 1141 743 1141 559 c
1141 376 1095 232 1004 127 c
913 23 787 -29 627 -29 c
466 -29 340 23 249 127 c
158 232 113 376 113 559 c
113 743 158 887 249 991 c
340 1095 466 1147 627 1147 c

ce} _d
/r{842 0 186 0 842 1147 sc
842 948 m
821 960 799 969 774 974 c
750 980 723 983 694 983 c
590 983 510 949 454 881 c
399 814 371 717 371 590 c
371 0 l
186 0 l
186 1120 l
371 1120 l
371 946 l
410 1014 460 1064 522 1097 c
584 1130 659 1147 748 1147 c
761 1147 775 1146 790 1144 c
805 1143 822 1140 841 1137 c
842 948 l

ce} _d
/s{1067 0 111 -29 967 1147 sc
907 1087 m
907 913 l
855 940 801 960 745 973 c
689 986 631 993 571 993 c
480 993 411 979 365 951 c
320 923 297 881 297 825 c
297 782 313 749 346 724 c
379 700 444 677 543 655 c
606 641 l
737 613 829 573 884 522 c
939 471 967 400 967 309 c
967 205 926 123 843 62 c
761 1 648 -29 504 -29 c
444 -29 381 -23 316 -11 c
251 0 183 18 111 41 c
111 231 l
179 196 246 169 312 151 c
378 134 443 125 508 125 c
595 125 661 140 708 169 c
755 199 778 241 778 295 c
778 345 761 383 727 410 c
694 437 620 462 506 487 c
442 502 l
328 526 246 563 195 612 c
144 662 119 730 119 817 c
119 922 156 1004 231 1061 c
306 1118 412 1147 549 1147 c
617 1147 681 1142 741 1132 c
801 1122 856 1107 907 1087 c

ce} _d
/t{803 0 55 0 754 1438 sc
375 1438 m
375 1120 l
754 1120 l
754 977 l
375 977 l
375 369 l
375 278 387 219 412 193 c
437 167 488 154 565 154 c
754 154 l
754 0 l
565 0 l
423 0 325 26 271 79 c
217 132 190 229 190 369 c
190 977 l
55 977 l
55 1120 l
190 1120 l
190 1438 l
375 1438 l

ce} _d
/x{1212 0 59 0 1145 1120 sc
1124 1120 m
719 575 l
1145 0 l
928 0 l
602 440 l
276 0 l
59 0 l
494 586 l
96 1120 l
313 1120 l
610 721 l
907 1120 l
1124 1120 l

ce} _d
/y{1212 0 61 -426 1151 1120 sc
659 -104 m
607 -237 556 -324 507 -365 c
458 -406 392 -426 309 -426 c
162 -426 l
162 -272 l
270 -272 l
321 -272 360 -260 388 -236 c
416 -212 447 -155 481 -66 c
514 18 l
61 1120 l
256 1120 l
606 244 l
956 1120 l
1151 1120 l
659 -104 l

ce} _d
/z{1075 0 88 0 987 1120 sc
113 1120 m
987 1120 l
987 952 l
295 147 l
987 147 l
987 0 l
88 0 l
88 168 l
780 973 l
113 973 l
113 1120 l

ce} _d
end readonly def

/BuildGlyph {
 exch begin
 CharStrings exch
 2 copy known not {pop /.notdef} if
 true 3 1 roll get exec
 end
} _d

/BuildChar {
 1 index /Encoding get exch get
 1 index /BuildGlyph get exec
} _d

FontName currentdict end definefont pop
end
%%EndProlog
mpldict begin
0 0 translate
0 0 460.8 345.6 rectclip
gsave
0 0 m
460.8 0 l
460.8 345.6 l
0 345.6 l
cl
1 setgray
fill
grestore
gsave
57.6 38.016 m
414.72 38.016 l
414.72 304.128 l
57.6 304.128 l
cl
1 setgray
fill
grestore
0.8 setlinewidth
1 setlinejoin
2 setlinecap
[] 0 setdash
0.69 setgray
gsave
57.6 38.016 357.12 266.112 rectclip
99.610688 38.016 m
99.610688 304.128 l
stroke
grestore
0 setlinecap
0 setgray
gsave
/o {
gsave
newpath
translate
0.8 setlinewidth
1 setlinejoin

0 setlinecap

0 0 m
0 -3.5 l

gsave
0 setgray
fill
grestore
stroke
grestore
} bind def
99.6107 38.016 o
grestore
/DejaVuSans 10.000 selectfont
gsave

84.2904 23.4222 translate
0 rotate
0 0 m /minus glyphshow
8.37891 0 m /zero glyphshow
14.7412 0 m /period glyphshow
17.9199 0 m /one glyphshow
24.2822 0 m /zero glyphshow
grestore
2 setlinecap
0.69 setgray
gsave
57.6 38.016 357.12 266.112 rectclip
167.640776 38.016 m
167.640776 304.128 l
stroke
grestore
0 setlinecap
0 setgray
gsave
/o {
gsave
newpath
translate
0.8 setlinewidth
1 setlinejoin

0 setlinecap

0 0 m
0 -3.5 l

gsave
0 setgray
fill
grestore
stroke
grestore
} bind def
167.641 38.016 o
grestore
/DejaVuSans 10.000 selectfont
gsave

152.32 23.4222 translate
0 rotate
0 0 m /minus glyphshow
8.37891 0 m /zero glyphshow
14.7412 0 m /period glyphshow
17.9199 0 m /zero glyphshow
24.2822 0 m /five glyphshow
grestore
2 setlinecap
0.69 setgray
gsave
57.6 38.016 357.12 266.112 rectclip
235.670864 38.016 m
235.670864 304.128 l
stroke
grestore
0 setlinecap
0 setgray
gsave
/o {
gsave
newpath
translate
0.8 setlinewidth
1 setlinejoin

0 setlinecap

0 0 m
0 -3.5 l

gsave
0 setgray
fill
grestore
stroke
grestore
} bind def
235.671 38.016 o
grestore
/DejaVuSans 10.000 selectfont
gsave

224.538 23.4222 translate
0 rotate
0 0 m /zero glyphshow
6.3623 0 m /period glyphshow
9.54102 0 m /zero glyphshow
15.9033 0 m /zero glyphshow
grestore
2 setlinecap
0.69 setgray
gsave
57.6 38.016 357.12 266.112 rectclip
303.700951 38.016 m
303.700951 304.128 l
stroke
grestore
0 setlinecap
0 setgray
gsave
/o {
gsave
newpath
translate
0.8 setlinewidth
1 setlinejoin

0 setlinecap

0 0 m
0 -3.5 l

gsave
0 setgray
fill
grestore
stroke
grestore
} bind def
303.701 38.016 o
grestore
/DejaVuSans 10.000 selectfont
gsave

292.568 23.4222 translate
0 rotate
0 0 m /zero glyphshow
6.3623 0 m /period glyphshow
9.54102 0 m /zero glyphshow
15.9033 0 m /five glyphshow
grestore
2 setlinecap
0.69 setgray
gsave
57.6 38.016 357.12 266.112 rectclip
371.731039 38.016 m
371.731039 304.128 l
stroke
grestore
0 setlinecap
0 setgray
gsave
/o {
gsave
newpath
translate
0.8 setlinewidth
1 setlinejoin

0 setlinecap

0 0 m
0 -3.5 l

gsave
0 setgray
fill
grestore
stroke
grestore
} bind def
371.731 38.016 o
grestore
/DejaVuSans 10.000 selectfont
gsave

360.598 23.4222 translate
0 rotate
0 0 m /zero glyphshow
6.3623 0 m /period glyphshow
9.54102 0 m /one glyphshow
15.9033 0 m /zero glyphshow
grestore
/DejaVuSans 10.000 selectfont
gsave

222.824 9.75037 translate
0 rotate
0 0 m /x glyphshow
5.91797 0 m /space glyphshow
9.09668 0 m /bracketleft glyphshow
12.998 0 m /m glyphshow
22.7393 0 m /bracketright glyphshow
grestore
2 setlinecap
0.69 setgray
gsave
57.6 38.016 357.12 266.112 rectclip
57.6 70.360933 m
414.72 70.360933 l
stroke
grestore
0 setlinecap
0 setgray
gsave
/o {
gsave
newpath
translate
0.8 setlinewidth
1 setlinejoin

0 setlinecap

-0 0 m
-3.5 0 l

gsave
0 setgray
fill
grestore
stroke
grestore
} bind def
57.6 70.3609 o
grestore
/DejaVuSans 10.000 selectfont
gsave

44.2406 66.5641 translate
0 rotate
0 0 m /zero glyphshow
grestore
2 setlinecap
0.69 setgray
gsave
57.6 38.016 357.12 266.112 rectclip
57.6 125.34815 m
414.72 125.34815 l
stroke
grestore
0 setlinecap
0 setgray
gsave
/o {
gsave
newpath
translate
0.8 setlinewidth
1 setlinejoin

0 setlinecap

-0 0 m
-3.5 0 l

gsave
0 setgray
fill
grestore
stroke
grestore
} bind def
57.6 125.348 o
grestore
/DejaVuSans 10.000 selectfont
gsave

44.2406 121.551 translate
0 rotate
0 0 m /five glyphshow
grestore
2 setlinecap
0.69 setgray
gsave
57.6 38.016 357.12 266.112 rectclip
57.6 180.335367 m
414.72 180.335367 l
stroke
grestore
0 setlinecap
0 setgray
gsave
/o {
gsave
newpath
translate
0.8 setlinewidth
1 setlinejoin

0 setlinecap

-0 0 m
-3.5 0 l

gsave
0 setgray
fill
grestore
stroke
grestore
} bind def
57.6 180.335 o
grestore
/DejaVuSans 10.000 selectfont
gsave

37.8813 176.538 translate
0 rotate
0 0 m /one glyphshow
6.3623 0 m /zero glyphshow
grestore
2 setlinecap
0.69 setgray
gsave
57.6 38.016 357.12 266.112 rectclip
57.6 235.322583 m
414.72 235.322583 l
stroke
grestore
0 setlinecap
0 setgray
gsave
/o {
gsave
newpath
translate
0.8 setlinewidth
1 setlinejoin

0 setlinecap

-0 0 m
-3.5 0 l

gsave
0 setgray
fill
grestore
stroke
grestore
} bind def
57.6 235.323 o
grestore
/DejaVuSans 10.000 selectfont
gsave

37.8813 231.526 translate
0 rotate
0 0 m /one glyphshow
6.3623 0 m /five glyphshow
grestore
2 setlinecap
0.69 setgray
gsave
57.6 38.016 357.12 266.112 rectclip
57.6 290.3098 m
414.72 290.3098 l
stroke
grestore
0 setlinecap
0 setgray
gsave
/o {
gsave
newpath
translate
0.8 setlinewidth
1 setlinejoin

0 setlinecap

-0 0 m
-3.5 0 l

gsave
0 setgray
fill
grestore
stroke
grestore
} bind def
57.6 290.31 o
grestore
/DejaVuSans 10.000 selectfont
gsave

37.8813 286.513 translate
0 rotate
0 0 m /two glyphshow
6.3623 0 m /zero glyphshow
grestore
1.5 setlinewidth
2 setlinecap
0.122 0.467 0.706 setrgbcolor
gsave
57.6 38.016 357.12 266.112 rectclip
73.832727 70.835659 m
74.955224 70.935304 l
76.243714 70.92667 l
77.722688 70.898776 l
79.420719 70.875876 l
81.3691 70.853329 l
83.60593 70.82991 l
86.172025 70.804752 l
89.117727 70.77897 l
92.500183 70.75524 l
96.38198 70.738183 l
100.836046 70.736549 l
105.948915 70.762962 l
111.273086 70.827841 l
116.456298 70.938454 l
121.639511 71.102472 l
126.822723 71.33024 l
132.006072 71.633777 l
137.189284 72.025979 l
142.372496 72.513451 l
147.330937 73.066326 l
151.825141 73.613932 l
155.864904 74.081115 l
159.495942 74.408366 l
162.759753 74.571205 l
165.693483 74.587954 l
168.330329 74.508827 l
170.700497 74.397654 l
172.831063 74.312545 l
174.745974 74.294245 l
176.467272 74.361077 l
178.014412 74.510697 l
179.405083 74.726203 l
180.655068 75.008683 l
182.267245 75.428181 l
184.308147 75.998288 l
186.34905 76.593822 l
188.389953 77.12899 l
190.430855 77.567183 l
192.471758 77.892884 l
194.512661 78.103727 l
196.553563 78.20553 l
198.594466 78.215417 l
200.635368 78.139633 l
202.473133 77.969602 l
204.191709 77.789475 l
206.0873 77.549104 l
208.177864 77.20253 l
210.483676 76.757464 l
212.394369 76.355177 l
213.728167 76.062403 l
215.831657 75.589535 l
218.780353 74.881278 l
221.595166 74.152477 l
224.143111 73.471966 l
225.990985 72.97089 l
227.086732 72.668713 l
228.537011 72.262248 l
230.426628 71.726276 l
232.137027 71.230307 l
233.856733 70.770249 l
235.670864 70.24079 l
237.484995 69.714045 l
239.209326 69.252456 l
240.92797 68.751325 l
242.823506 68.212538 l
244.265731 67.807271 l
245.362199 67.503841 l
247.219923 66.997651 l
249.763024 66.313577 l
252.567905 65.581213 l
255.516465 64.866907 l
257.620227 64.390091 l
258.957563 64.093127 l
260.879277 63.682878 l
263.185633 63.230146 l
265.273204 62.877887 l
267.162808 62.63425 l
268.87322 62.448547 l
270.706359 62.271422 l
272.747262 62.1908 l
274.788164 62.193956 l
276.829067 62.287621 l
278.869969 62.490172 l
280.910872 62.807581 l
282.951775 63.238284 l
284.992677 63.767998 l
287.03358 64.361475 l
289.074483 64.93354 l
290.68666 65.35791 l
291.936644 65.646681 l
293.327315 65.870556 l
294.874456 66.030898 l
296.595753 66.110289 l
298.510664 66.105692 l
300.641094 66.034571 l
303.011398 65.937002 l
305.648245 65.870852 l
308.581974 65.900095 l
311.845786 66.075383 l
315.476824 66.415743 l
319.516586 66.897464 l
324.01079 67.461512 l
328.969231 68.032521 l
334.152443 68.538524 l
339.335656 68.948487 l
344.519004 69.268621 l
349.702216 69.511772 l
354.885429 69.689849 l
360.068641 69.813372 l
365.39322 69.890968 l
370.50677 69.928959 l
374.961108 69.936737 l
378.842905 69.927247 l
382.225361 69.909936 l
385.171063 69.889654 l
387.738519 69.869246 l
389.973988 69.849962 l
391.922369 69.831047 l
393.6204 69.811395 l
395.099374 69.786453 l
396.387864 69.78051 l
397.510361 69.882898 l
398.487273 70.115053 l
stroke
grestore
1 0.498 0.055 setrgbcolor
gsave
57.6 38.016 357.12 266.112 rectclip
73.832727 256.743404 m
74.955224 272.867855 l
76.243714 280.794812 l
77.722688 285.204787 l
79.420719 287.750695 l
81.3691 289.252946 l
83.60593 290.196527 l
86.172025 290.835478 l
89.117727 291.292972 l
92.500183 291.630593 l
96.38198 291.871437 l
100.836046 292.013304 l
105.948915 292.032 l
111.273086 291.874737 l
116.456298 291.497524 l
121.639511 290.820082 l
126.822723 289.713739 l
132.006072 287.982741 l
137.189284 285.326859 l
142.372496 281.327089 l
147.330937 275.6865 l
151.825141 268.456781 l
155.864904 259.929363 l
159.495942 250.635424 l
162.759753 241.250205 l
165.693483 232.388466 l
168.330329 224.468107 l
170.700497 217.681585 l
172.831063 212.009103 l
174.745974 207.265906 l
176.467272 203.179256 l
178.014412 199.477516 l
179.405083 195.950636 l
180.655068 192.199408 l
182.267245 187.048206 l
184.308147 179.896569 l
186.34905 171.535432 l
188.389953 162.547992 l
190.430855 153.292763 l
192.471758 144.051612 l
194.512661 135.017982 l
196.553563 126.315705 l
198.594466 118.019893 l
200.635368 110.307056 l
202.473133 103.561334 l
204.191709 97.569597 l
206.0873 91.53695 l
208.177864 85.382011 l
210.483676 79.235276 l
212.394369 74.633846 l
213.728167 71.679097 l
215.831657 67.493921 l
218.780353 62.355718 l
221.595166 58.468187 l
224.143111 55.70442 l
225.990985 54.060852 l
227.086732 53.211959 l
228.537011 52.246384 l
230.426628 51.256504 l
232.137027 50.62756 l
233.856733 50.243969 l
235.670864 50.112 l
237.484995 50.24089 l
239.209326 50.622941 l
240.92797 51.254304 l
242.823506 52.249023 l
244.265731 53.21086 l
245.362199 54.063051 l
247.219923 55.721026 l
249.763024 58.493372 l
252.567905 62.389359 l
255.516465 67.558619 l
257.620227 71.764932 l
258.957563 74.748396 l
260.879277 79.41085 l
263.185633 85.609768 l
265.273204 91.807817 l
267.162808 97.871587 l
268.87322 103.888068 l
270.706359 110.674041 l
272.747262 118.447034 l
274.788164 126.80927 l
276.829067 135.577312 l
278.869969 144.671207 l
280.910872 153.960748 l
282.951775 163.24446 l
284.992677 172.23201 l
287.03358 180.558615 l
289.074483 187.645367 l
290.68666 192.728385 l
291.936644 196.423526 l
293.327315 199.897619 l
294.874456 203.553169 l
296.595753 207.601328 l
298.510664 212.315932 l
300.641094 217.966418 l
303.011398 224.733145 l
305.648245 232.635908 l
308.581974 241.475653 l
311.845786 250.833378 l
315.476824 260.095424 l
319.516586 268.58985 l
324.01079 275.784377 l
328.969231 281.395273 l
334.152443 285.370849 l
339.335656 288.009135 l
344.519004 289.726936 l
349.702216 290.823381 l
354.885429 291.494225 l
360.068641 291.865939 l
365.39322 292.017703 l
370.50677 291.996808 l
374.961108 291.852742 l
378.842905 291.610798 l
382.225361 291.272077 l
385.171063 290.813483 l
387.738519 290.173432 l
389.973988 289.228752 l
391.922369 287.723202 l
393.6204 285.172895 l
395.099374 280.754122 l
396.387864 272.817267 l
397.510361 256.685117 l
398.487273 172.14799 l
stroke
grestore
0.173 0.627 0.173 setrgbcolor
gsave
57.6 38.016 357.12 266.112 rectclip
73.832727 70.360933 m
74.955224 70.360933 l
76.243714 70.360933 l
77.722688 70.360933 l
79.420719 70.360933 l
81.3691 70.360933 l
83.60593 70.360933 l
86.172025 70.360933 l
89.117727 70.360933 l
92.500183 70.360933 l
96.38198 70.360933 l
100.836046 70.360933 l
105.948915 70.360933 l
111.273086 70.360933 l
116.456298 70.360933 l
121.639511 70.360933 l
126.822723 70.360933 l
132.006072 70.360933 l
137.189284 70.360933 l
142.372496 70.360933 l
147.330937 70.360933 l
151.825141 70.360933 l
155.864904 70.360933 l
159.495942 70.360933 l
162.759753 70.360933 l
165.693483 70.360933 l
168.330329 70.360933 l
170.700497 70.360933 l
172.831063 70.360933 l
174.745974 70.360933 l
176.467272 70.360933 l
178.014412 70.360933 l
179.405083 70.360933 l
180.655068 70.360933 l
182.267245 70.360933 l
184.308147 70.360933 l
186.34905 70.360933 l
188.389953 70.360933 l
190.430855 70.360933 l
192.471758 70.360933 l
194.512661 70.360933 l
196.553563 70.360933 l
198.594466 70.360933 l
200.635368 70.360933 l
202.473133 70.360933 l
204.191709 70.360933 l
206.0873 70.360933 l
208.177864 70.360933 l
210.483676 70.360933 l
212.394369 70.360933 l
213.728167 70.360933 l
215.831657 70.360933 l
218.780353 70.360933 l
221.595166 70.360933 l
224.143111 70.360933 l
225.990985 70.360933 l
227.086732 70.360933 l
228.537011 70.360933 l
230.426628 70.360933 l
232.137027 70.360933 l
233.856733 70.360933 l
235.670864 70.360933 l
237.484995 70.360933 l
239.209326 70.360933 l
240.92797 70.360933 l
242.823506 70.360933 l
244.265731 70.360933 l
245.362199 70.360933 l
247.219923 70.360933 l
249.763024 70.360933 l
252.567905 70.360933 l
255.516465 70.360933 l
257.620227 70.360933 l
258.957563 70.360933 l
260.879277 70.360933 l
263.185633 70.360933 l
265.273204 70.360933 l
267.162808 70.360933 l
268.87322 70.360933 l
270.706359 70.360933 l
272.747262 70.360933 l
274.788164 70.360933 l
276.829067 70.360933 l
278.869969 70.360933 l
280.910872 70.360933 l
282.951775 70.360933 l
284.992677 70.360933 l
287.03358 70.360933 l
289.074483 70.360933 l
290.68666 70.360933 l
291.936644 70.360933 l
293.327315 70.360933 l
294.874456 70.360933 l
296.595753 70.360933 l
298.510664 70.360933 l
300.641094 70.360933 l
303.011398 70.360933 l
305.648245 70.360933 l
308.581974 70.360933 l
311.845786 70.360933 l
315.476824 70.360933 l
319.516586 70.360933 l
324.01079 70.360933 l
328.969231 70.360933 l
334.152443 70.360933 l
339.335656 70.360933 l
344.519004 70.360933 l
349.702216 70.360933 l
354.885429 70.360933 l
360.068641 70.360933 l
365.39322 70.360933 l
370.50677 70.360933 l
374.961108 70.360933 l
378.842905 70.360933 l
382.225361 70.360933 l
385.171063 70.360933 l
387.738519 70.360933 l
389.973988 70.360933 l
391.922369 70.360933 l
393.6204 70.360933 l
395.099374 70.360933 l
396.387864 70.360933 l
397.510361 70.360933 l
398.487273 70.360933 l
stroke
grestore
0.8 setlinewidth
0 setlinejoin
0 setgray
gsave
57.6 38.016 m
57.6 304.128 l
stroke
grestore
gsave
414.72 38.016 m
414.72 304.128 l
stroke
grestore
gsave
57.6 38.016 m
414.72 38.016 l
stroke
grestore
gsave
57.6 304.128 m
414.72 304.128 l
stroke
grestore
/DejaVuSans 12.000 selectfont
gsave

130.894 310.128 translate
0 rotate
0 0 m /V glyphshow
7.33398 0 m /e glyphshow
14.7168 0 m /l glyphshow
18.0508 0 m /o glyphshow
25.3926 0 m /c glyphshow
31.9902 0 m /i glyphshow
35.3242 0 m /t glyphshow
40.0293 0 m /y glyphshow
47.1309 0 m /P glyphshow
54.1172 0 m /r glyphshow
58.8008 0 m /o glyphshow
66.1426 0 m /f glyphshow
70.3672 0 m /i glyphshow
73.7012 0 m /l glyphshow
77.0352 0 m /e glyphshow
84.418 0 m /at glyphshow
96.418 0 m /zero glyphshow
104.053 0 m /period glyphshow
107.867 0 m /one glyphshow
115.502 0 m /two glyphshow
123.137 0 m /s glyphshow
129.389 0 m /space glyphshow
133.203 0 m /parenleft glyphshow
137.885 0 m /l glyphshow
141.219 0 m /i glyphshow
144.553 0 m /n glyphshow
152.158 0 m /e glyphshow
159.541 0 m /one glyphshow
167.176 0 m /four glyphshow
174.811 0 m /zero glyphshow
182.445 0 m /m glyphshow
194.135 0 m /m glyphshow
205.824 0 m /parenright glyphshow
grestore
1 setlinewidth
0 setlinecap
0.8 setgray
gsave
64.6 147.142312 m
144.19375 147.142312 l
145.527083 147.142312 146.19375 147.808979 146.19375 149.142312 c
146.19375 193.001687 l
146.19375 194.335021 145.527083 195.001687 144.19375 195.001687 c
64.6 195.001687 l
63.266667 195.001687 62.6 194.335021 62.6 193.001687 c
62.6 149.142312 l
62.6 147.808979 63.266667 147.142312 64.6 147.142312 c
cl
gsave
1 setgray
fill
grestore
stroke
grestore
1.5 setlinewidth
1 setlinejoin
2 setlinecap
0.122 0.467 0.706 setrgbcolor
gsave
66.6 186.907937 m
76.6 186.907937 l
86.6 186.907937 l
stroke
grestore
0 setgray
/DejaVuSans 10.000 selectfont
gsave

94.6 183.408 translate
0 rotate
0 0 m /U glyphshow
7.31934 0 m /underscore glyphshow
12.3193 0 m /x glyphshow
18.2373 0 m /space glyphshow
21.416 0 m /bracketleft glyphshow
25.3174 0 m /m glyphshow
35.0586 0 m /slash glyphshow
38.4277 0 m /s glyphshow
43.6377 0 m /bracketright glyphshow
grestore
1 0.498 0.055 setrgbcolor
gsave
66.6 171.954812 m
76.6 171.954812 l
86.6 171.954812 l
stroke
grestore
0 setgray
/DejaVuSans 10.000 selectfont
gsave

94.6 168.455 translate
0 rotate
0 0 m /U glyphshow
7.31934 0 m /underscore glyphshow
12.3193 0 m /y glyphshow
18.2373 0 m /space glyphshow
21.416 0 m /bracketleft glyphshow
25.3174 0 m /m glyphshow
35.0586 0 m /slash glyphshow
38.4277 0 m /s glyphshow
43.6377 0 m /bracketright glyphshow
grestore
0.173 0.627 0.173 setrgbcolor
gsave
66.6 157.001687 m
76.6 157.001687 l
86.6 157.001687 l
stroke
grestore
0 setgray
/DejaVuSans 10.000 selectfont
gsave

94.6 153.502 translate
0 rotate
0 0 m /U glyphshow
7.31934 0 m /underscore glyphshow
12.3193 0 m /z glyphshow
17.5684 0 m /space glyphshow
20.7471 0 m /bracketleft glyphshow
24.6484 0 m /m glyphshow
34.3896 0 m /slash glyphshow
37.7588 0 m /s glyphshow
42.9688 0 m /bracketright glyphshow
grestore

end
showpage
