%!PS-Adobe-3.0 EPSF-3.0
%%LanguageLevel: 3
%%Title: line140mm_0.5.eps
%%Creator: Matplotlib v3.10.0, https://matplotlib.org/
%%CreationDate: Mon Feb 17 10:46:16 2025
%%Orientation: portrait
%%BoundingBox: 0 0 461 346
%%HiResBoundingBox: 0.000000 0.000000 460.800000 345.600000
%%EndComments
%%BeginProlog
/mpldict 9 dict def
mpldict begin
/_d { bind def } bind def
/m { moveto } _d
/l { lineto } _d
/r { rlineto } _d
/c { curveto } _d
/cl { closepath } _d
/ce { closepath eofill } _d
/sc { setcachedevice } _d
%!PS-Adobe-3.0 Resource-Font
%%Creator: Converted from TrueType to Type 3 by Matplotlib.
10 dict begin
/FontName /DejaVuSans def
/PaintType 0 def
/FontMatrix [0.00048828125 0 0 0.00048828125 0 0] def
/FontBBox [-2090 -948 3673 2524] def
/FontType 3 def
/Encoding [/minus /space /parenleft /parenright /period /slash /zero /one /two /four /five /seven /at /P /U /V /bracketleft /bracketright /underscore /c /e /f /i /l /m /n /o /r /s /t /x /y /z] def
/CharStrings 34 dict dup begin
/.notdef 0 def
/minus{1716 0 217 557 1499 727 sc
217 727 m
1499 727 l
1499 557 l
217 557 l
217 727 l

ce} _d
/space{651 0 0 0 0 0 sc
ce} _d
/parenleft{799 0 176 -270 635 1554 sc
635 1554 m
546 1401 479 1249 436 1099 c
393 949 371 797 371 643 c
371 489 393 336 436 185 c
480 34 546 -117 635 -270 c
475 -270 l
375 -113 300 41 250 192 c
201 343 176 494 176 643 c
176 792 201 941 250 1092 c
299 1243 374 1397 475 1554 c
635 1554 l

ce} _d
/parenright{799 0 164 -270 623 1554 sc
164 1554 m
324 1554 l
424 1397 499 1243 548 1092 c
598 941 623 792 623 643 c
623 494 598 343 548 192 c
499 41 424 -113 324 -270 c
164 -270 l
253 -117 319 34 362 185 c
406 336 428 489 428 643 c
428 797 406 949 362 1099 c
319 1249 253 1401 164 1554 c

ce} _d
/period{651 0 219 0 430 254 sc
219 254 m
430 254 l
430 0 l
219 0 l
219 254 l

ce} _d
/slash{690 0 0 -190 690 1493 sc
520 1493 m
690 1493 l
170 -190 l
0 -190 l
520 1493 l

ce} _d
/zero{1303 0 135 -29 1167 1520 sc
651 1360 m
547 1360 469 1309 416 1206 c
364 1104 338 950 338 745 c
338 540 364 387 416 284 c
469 182 547 131 651 131 c
756 131 834 182 886 284 c
939 387 965 540 965 745 c
965 950 939 1104 886 1206 c
834 1309 756 1360 651 1360 c

651 1520 m
818 1520 946 1454 1034 1321 c
1123 1189 1167 997 1167 745 c
1167 494 1123 302 1034 169 c
946 37 818 -29 651 -29 c
484 -29 356 37 267 169 c
179 302 135 494 135 745 c
135 997 179 1189 267 1321 c
356 1454 484 1520 651 1520 c

ce} _d
/one{1303 0 225 0 1114 1493 sc
254 170 m
584 170 l
584 1309 l
225 1237 l
225 1421 l
582 1493 l
784 1493 l
784 170 l
1114 170 l
1114 0 l
254 0 l
254 170 l

ce} _d
/two{1303 0 150 0 1098 1520 sc
393 170 m
1098 170 l
1098 0 l
150 0 l
150 170 l
227 249 331 356 463 489 c
596 623 679 709 713 748 c
778 821 823 882 848 932 c
874 983 887 1032 887 1081 c
887 1160 859 1225 803 1275 c
748 1325 675 1350 586 1350 c
523 1350 456 1339 385 1317 c
315 1295 240 1262 160 1217 c
160 1421 l
241 1454 317 1478 388 1495 c
459 1512 523 1520 582 1520 c
737 1520 860 1481 952 1404 c
1044 1327 1090 1223 1090 1094 c
1090 1033 1078 974 1055 919 c
1032 864 991 800 930 725 c
913 706 860 650 771 557 c
682 465 556 336 393 170 c

ce} _d
/four{1303 0 100 0 1188 1493 sc
774 1317 m
264 520 l
774 520 l
774 1317 l

721 1493 m
975 1493 l
975 520 l
1188 520 l
1188 352 l
975 352 l
975 0 l
774 0 l
774 352 l
100 352 l
100 547 l
721 1493 l

ce} _d
/five{1303 0 158 -29 1124 1493 sc
221 1493 m
1014 1493 l
1014 1323 l
406 1323 l
406 957 l
435 967 465 974 494 979 c
523 984 553 987 582 987 c
749 987 881 941 978 850 c
1075 759 1124 635 1124 479 c
1124 318 1074 193 974 104 c
874 15 733 -29 551 -29 c
488 -29 424 -24 359 -13 c
294 -2 227 14 158 35 c
158 238 l
218 205 280 181 344 165 c
408 149 476 141 547 141 c
662 141 754 171 821 232 c
888 293 922 375 922 479 c
922 583 888 665 821 726 c
754 787 662 817 547 817 c
493 817 439 811 385 799 c
332 787 277 768 221 743 c
221 1493 l

ce} _d
/seven{1303 0 168 0 1128 1493 sc
168 1493 m
1128 1493 l
1128 1407 l
586 0 l
375 0 l
885 1323 l
168 1323 l
168 1493 l

ce} _d
/at{2048 0 135 -356 1905 1442 sc
762 537 m
762 442 786 367 833 312 c
880 258 945 231 1028 231 c
1110 231 1174 258 1221 313 c
1268 368 1292 442 1292 537 c
1292 630 1268 704 1220 759 c
1172 814 1107 842 1026 842 c
945 842 881 815 833 760 c
786 705 762 631 762 537 c

1307 238 m
1267 187 1221 149 1169 124 c
1118 100 1058 88 989 88 c
874 88 781 129 709 212 c
638 295 602 404 602 537 c
602 670 638 779 710 862 c
782 945 875 987 989 987 c
1058 987 1118 974 1170 949 c
1222 924 1268 887 1307 836 c
1307 967 l
1450 967 l
1450 231 l
1547 246 1623 290 1678 364 c
1733 439 1761 535 1761 653 c
1761 724 1750 791 1729 854 c
1708 917 1677 975 1634 1028 c
1565 1115 1480 1182 1380 1228 c
1281 1275 1172 1298 1055 1298 c
973 1298 894 1287 819 1265 c
744 1244 674 1212 610 1169 c
505 1101 423 1012 364 901 c
305 791 276 672 276 543 c
276 437 295 338 333 245 c
372 152 427 71 500 0 c
570 -69 651 -122 743 -158 c
835 -195 933 -213 1038 -213 c
1124 -213 1208 -198 1291 -169 c
1374 -140 1451 -99 1520 -45 c
1610 -156 l
1527 -221 1436 -270 1337 -304 c
1239 -339 1139 -356 1038 -356 c
915 -356 798 -334 689 -290 c
580 -247 482 -183 397 -100 c
312 -17 247 80 202 189 c
157 299 135 417 135 543 c
135 664 158 780 203 890 c
248 1000 313 1097 397 1180 c
483 1265 582 1329 695 1374 c
808 1419 927 1442 1053 1442 c
1194 1442 1325 1413 1446 1355 c
1567 1297 1669 1215 1751 1108 c
1801 1043 1839 972 1865 895 c
1892 818 1905 739 1905 657 c
1905 482 1852 343 1746 242 c
1640 141 1494 88 1307 84 c
1307 238 l

ce} _d
/P{1235 0 201 0 1165 1493 sc
403 1327 m
403 766 l
657 766 l
751 766 824 790 875 839 c
926 888 952 957 952 1047 c
952 1136 926 1205 875 1254 c
824 1303 751 1327 657 1327 c
403 1327 l

201 1493 m
657 1493 l
824 1493 951 1455 1036 1379 c
1122 1304 1165 1193 1165 1047 c
1165 900 1122 788 1036 713 c
951 638 824 600 657 600 c
403 600 l
403 0 l
201 0 l
201 1493 l

ce} _d
/U{1499 0 178 -29 1321 1493 sc
178 1493 m
381 1493 l
381 586 l
381 426 410 311 468 240 c
526 170 620 135 750 135 c
879 135 973 170 1031 240 c
1089 311 1118 426 1118 586 c
1118 1493 l
1321 1493 l
1321 561 l
1321 366 1273 219 1176 120 c
1080 21 938 -29 750 -29 c
561 -29 419 21 322 120 c
226 219 178 366 178 561 c
178 1493 l

ce} _d
/V{1401 0 16 0 1384 1493 sc
586 0 m
16 1493 l
227 1493 l
700 236 l
1174 1493 l
1384 1493 l
815 0 l
586 0 l

ce} _d
/bracketleft{799 0 176 -270 600 1556 sc
176 1556 m
600 1556 l
600 1413 l
360 1413 l
360 -127 l
600 -127 l
600 -270 l
176 -270 l
176 1556 l

ce} _d
/bracketright{799 0 199 -270 623 1556 sc
623 1556 m
623 -270 l
199 -270 l
199 -127 l
438 -127 l
438 1413 l
199 1413 l
199 1556 l
623 1556 l

ce} _d
/underscore{1024 0 -20 -483 1044 -340 sc
1044 -340 m
1044 -483 l
-20 -483 l
-20 -340 l
1044 -340 l

ce} _d
/c{1126 0 113 -29 999 1147 sc
999 1077 m
999 905 l
947 934 895 955 842 969 c
790 984 737 991 684 991 c
565 991 472 953 406 877 c
340 802 307 696 307 559 c
307 422 340 316 406 240 c
472 165 565 127 684 127 c
737 127 790 134 842 148 c
895 163 947 184 999 213 c
999 43 l
948 19 894 1 839 -11 c
784 -23 726 -29 664 -29 c
495 -29 361 24 262 130 c
163 236 113 379 113 559 c
113 742 163 885 263 990 c
364 1095 501 1147 676 1147 c
733 1147 788 1141 842 1129 c
896 1118 948 1100 999 1077 c

ce} _d
/e{1260 0 113 -29 1151 1147 sc
1151 606 m
1151 516 l
305 516 l
313 389 351 293 419 226 c
488 160 583 127 705 127 c
776 127 844 136 910 153 c
977 170 1043 196 1108 231 c
1108 57 l
1042 29 974 8 905 -7 c
836 -22 765 -29 694 -29 c
515 -29 374 23 269 127 c
165 231 113 372 113 549 c
113 732 162 878 261 985 c
360 1093 494 1147 662 1147 c
813 1147 932 1098 1019 1001 c
1107 904 1151 773 1151 606 c

967 660 m
966 761 937 841 882 901 c
827 961 755 991 664 991 c
561 991 479 962 417 904 c
356 846 320 764 311 659 c
967 660 l

ce} _d
/f{721 0 47 0 760 1556 sc
760 1556 m
760 1403 l
584 1403 l
518 1403 472 1390 446 1363 c
421 1336 408 1288 408 1219 c
408 1120 l
711 1120 l
711 977 l
408 977 l
408 0 l
223 0 l
223 977 l
47 977 l
47 1120 l
223 1120 l
223 1198 l
223 1323 252 1413 310 1470 c
368 1527 460 1556 586 1556 c
760 1556 l

ce} _d
/i{569 0 193 0 377 1556 sc
193 1120 m
377 1120 l
377 0 l
193 0 l
193 1120 l

193 1556 m
377 1556 l
377 1323 l
193 1323 l
193 1556 l

ce} _d
/l{569 0 193 0 377 1556 sc
193 1556 m
377 1556 l
377 0 l
193 0 l
193 1556 l

ce} _d
/m{1995 0 186 0 1821 1147 sc
1065 905 m
1111 988 1166 1049 1230 1088 c
1294 1127 1369 1147 1456 1147 c
1573 1147 1663 1106 1726 1024 c
1789 943 1821 827 1821 676 c
1821 0 l
1636 0 l
1636 670 l
1636 777 1617 857 1579 909 c
1541 961 1483 987 1405 987 c
1310 987 1234 955 1179 892 c
1124 829 1096 742 1096 633 c
1096 0 l
911 0 l
911 670 l
911 778 892 858 854 909 c
816 961 757 987 678 987 c
584 987 509 955 454 891 c
399 828 371 742 371 633 c
371 0 l
186 0 l
186 1120 l
371 1120 l
371 946 l
413 1015 463 1065 522 1098 c
581 1131 650 1147 731 1147 c
812 1147 881 1126 938 1085 c
995 1044 1038 984 1065 905 c

ce} _d
/n{1298 0 186 0 1124 1147 sc
1124 676 m
1124 0 l
940 0 l
940 670 l
940 776 919 855 878 908 c
837 961 775 987 692 987 c
593 987 514 955 457 892 c
400 829 371 742 371 633 c
371 0 l
186 0 l
186 1120 l
371 1120 l
371 946 l
415 1013 467 1064 526 1097 c
586 1130 655 1147 733 1147 c
862 1147 959 1107 1025 1027 c
1091 948 1124 831 1124 676 c

ce} _d
/o{1253 0 113 -29 1141 1147 sc
627 991 m
528 991 450 952 393 875 c
336 798 307 693 307 559 c
307 425 335 319 392 242 c
449 165 528 127 627 127 c
725 127 803 166 860 243 c
917 320 946 426 946 559 c
946 692 917 797 860 874 c
803 952 725 991 627 991 c

627 1147 m
787 1147 913 1095 1004 991 c
1095 887 1141 743 1141 559 c
1141 376 1095 232 1004 127 c
913 23 787 -29 627 -29 c
466 -29 340 23 249 127 c
158 232 113 376 113 559 c
113 743 158 887 249 991 c
340 1095 466 1147 627 1147 c

ce} _d
/r{842 0 186 0 842 1147 sc
842 948 m
821 960 799 969 774 974 c
750 980 723 983 694 983 c
590 983 510 949 454 881 c
399 814 371 717 371 590 c
371 0 l
186 0 l
186 1120 l
371 1120 l
371 946 l
410 1014 460 1064 522 1097 c
584 1130 659 1147 748 1147 c
761 1147 775 1146 790 1144 c
805 1143 822 1140 841 1137 c
842 948 l

ce} _d
/s{1067 0 111 -29 967 1147 sc
907 1087 m
907 913 l
855 940 801 960 745 973 c
689 986 631 993 571 993 c
480 993 411 979 365 951 c
320 923 297 881 297 825 c
297 782 313 749 346 724 c
379 700 444 677 543 655 c
606 641 l
737 613 829 573 884 522 c
939 471 967 400 967 309 c
967 205 926 123 843 62 c
761 1 648 -29 504 -29 c
444 -29 381 -23 316 -11 c
251 0 183 18 111 41 c
111 231 l
179 196 246 169 312 151 c
378 134 443 125 508 125 c
595 125 661 140 708 169 c
755 199 778 241 778 295 c
778 345 761 383 727 410 c
694 437 620 462 506 487 c
442 502 l
328 526 246 563 195 612 c
144 662 119 730 119 817 c
119 922 156 1004 231 1061 c
306 1118 412 1147 549 1147 c
617 1147 681 1142 741 1132 c
801 1122 856 1107 907 1087 c

ce} _d
/t{803 0 55 0 754 1438 sc
375 1438 m
375 1120 l
754 1120 l
754 977 l
375 977 l
375 369 l
375 278 387 219 412 193 c
437 167 488 154 565 154 c
754 154 l
754 0 l
565 0 l
423 0 325 26 271 79 c
217 132 190 229 190 369 c
190 977 l
55 977 l
55 1120 l
190 1120 l
190 1438 l
375 1438 l

ce} _d
/x{1212 0 59 0 1145 1120 sc
1124 1120 m
719 575 l
1145 0 l
928 0 l
602 440 l
276 0 l
59 0 l
494 586 l
96 1120 l
313 1120 l
610 721 l
907 1120 l
1124 1120 l

ce} _d
/y{1212 0 61 -426 1151 1120 sc
659 -104 m
607 -237 556 -324 507 -365 c
458 -406 392 -426 309 -426 c
162 -426 l
162 -272 l
270 -272 l
321 -272 360 -260 388 -236 c
416 -212 447 -155 481 -66 c
514 18 l
61 1120 l
256 1120 l
606 244 l
956 1120 l
1151 1120 l
659 -104 l

ce} _d
/z{1075 0 88 0 987 1120 sc
113 1120 m
987 1120 l
987 952 l
295 147 l
987 147 l
987 0 l
88 0 l
88 168 l
780 973 l
113 973 l
113 1120 l

ce} _d
end readonly def

/BuildGlyph {
 exch begin
 CharStrings exch
 2 copy known not {pop /.notdef} if
 true 3 1 roll get exec
 end
} _d

/BuildChar {
 1 index /Encoding get exch get
 1 index /BuildGlyph get exec
} _d

FontName currentdict end definefont pop
end
%%EndProlog
mpldict begin
0 0 translate
0 0 460.8 345.6 rectclip
gsave
0 0 m
460.8 0 l
460.8 345.6 l
0 345.6 l
cl
1 setgray
fill
grestore
gsave
57.6 38.016 m
414.72 38.016 l
414.72 304.128 l
57.6 304.128 l
cl
1 setgray
fill
grestore
0.8 setlinewidth
1 setlinejoin
2 setlinecap
[] 0 setdash
0.69 setgray
gsave
57.6 38.016 357.12 266.112 rectclip
99.610688 38.016 m
99.610688 304.128 l
stroke
grestore
0 setlinecap
0 setgray
gsave
/o {
gsave
newpath
translate
0.8 setlinewidth
1 setlinejoin

0 setlinecap

0 0 m
0 -3.5 l

gsave
0 setgray
fill
grestore
stroke
grestore
} bind def
99.6107 38.016 o
grestore
/DejaVuSans 10.000 selectfont
gsave

84.2904 23.4222 translate
0 rotate
0 0 m /minus glyphshow
8.37891 0 m /zero glyphshow
14.7412 0 m /period glyphshow
17.9199 0 m /one glyphshow
24.2822 0 m /zero glyphshow
grestore
2 setlinecap
0.69 setgray
gsave
57.6 38.016 357.12 266.112 rectclip
167.640776 38.016 m
167.640776 304.128 l
stroke
grestore
0 setlinecap
0 setgray
gsave
/o {
gsave
newpath
translate
0.8 setlinewidth
1 setlinejoin

0 setlinecap

0 0 m
0 -3.5 l

gsave
0 setgray
fill
grestore
stroke
grestore
} bind def
167.641 38.016 o
grestore
/DejaVuSans 10.000 selectfont
gsave

152.32 23.4222 translate
0 rotate
0 0 m /minus glyphshow
8.37891 0 m /zero glyphshow
14.7412 0 m /period glyphshow
17.9199 0 m /zero glyphshow
24.2822 0 m /five glyphshow
grestore
2 setlinecap
0.69 setgray
gsave
57.6 38.016 357.12 266.112 rectclip
235.670864 38.016 m
235.670864 304.128 l
stroke
grestore
0 setlinecap
0 setgray
gsave
/o {
gsave
newpath
translate
0.8 setlinewidth
1 setlinejoin

0 setlinecap

0 0 m
0 -3.5 l

gsave
0 setgray
fill
grestore
stroke
grestore
} bind def
235.671 38.016 o
grestore
/DejaVuSans 10.000 selectfont
gsave

224.538 23.4222 translate
0 rotate
0 0 m /zero glyphshow
6.3623 0 m /period glyphshow
9.54102 0 m /zero glyphshow
15.9033 0 m /zero glyphshow
grestore
2 setlinecap
0.69 setgray
gsave
57.6 38.016 357.12 266.112 rectclip
303.700951 38.016 m
303.700951 304.128 l
stroke
grestore
0 setlinecap
0 setgray
gsave
/o {
gsave
newpath
translate
0.8 setlinewidth
1 setlinejoin

0 setlinecap

0 0 m
0 -3.5 l

gsave
0 setgray
fill
grestore
stroke
grestore
} bind def
303.701 38.016 o
grestore
/DejaVuSans 10.000 selectfont
gsave

292.568 23.4222 translate
0 rotate
0 0 m /zero glyphshow
6.3623 0 m /period glyphshow
9.54102 0 m /zero glyphshow
15.9033 0 m /five glyphshow
grestore
2 setlinecap
0.69 setgray
gsave
57.6 38.016 357.12 266.112 rectclip
371.731039 38.016 m
371.731039 304.128 l
stroke
grestore
0 setlinecap
0 setgray
gsave
/o {
gsave
newpath
translate
0.8 setlinewidth
1 setlinejoin

0 setlinecap

0 0 m
0 -3.5 l

gsave
0 setgray
fill
grestore
stroke
grestore
} bind def
371.731 38.016 o
grestore
/DejaVuSans 10.000 selectfont
gsave

360.598 23.4222 translate
0 rotate
0 0 m /zero glyphshow
6.3623 0 m /period glyphshow
9.54102 0 m /one glyphshow
15.9033 0 m /zero glyphshow
grestore
/DejaVuSans 10.000 selectfont
gsave

222.824 9.75037 translate
0 rotate
0 0 m /x glyphshow
5.91797 0 m /space glyphshow
9.09668 0 m /bracketleft glyphshow
12.998 0 m /m glyphshow
22.7393 0 m /bracketright glyphshow
grestore
2 setlinecap
0.69 setgray
gsave
57.6 38.016 357.12 266.112 rectclip
57.6 50.323365 m
414.72 50.323365 l
stroke
grestore
0 setlinecap
0 setgray
gsave
/o {
gsave
newpath
translate
0.8 setlinewidth
1 setlinejoin

0 setlinecap

-0 0 m
-3.5 0 l

gsave
0 setgray
fill
grestore
stroke
grestore
} bind def
57.6 50.3234 o
grestore
/DejaVuSans 10.000 selectfont
gsave

34.6938 46.5265 translate
0 rotate
0 0 m /zero glyphshow
6.3623 0 m /period glyphshow
9.54102 0 m /zero glyphshow
grestore
2 setlinecap
0.69 setgray
gsave
57.6 38.016 357.12 266.112 rectclip
57.6 80.491843 m
414.72 80.491843 l
stroke
grestore
0 setlinecap
0 setgray
gsave
/o {
gsave
newpath
translate
0.8 setlinewidth
1 setlinejoin

0 setlinecap

-0 0 m
-3.5 0 l

gsave
0 setgray
fill
grestore
stroke
grestore
} bind def
57.6 80.4918 o
grestore
/DejaVuSans 10.000 selectfont
gsave

34.6938 76.695 translate
0 rotate
0 0 m /two glyphshow
6.3623 0 m /period glyphshow
9.54102 0 m /five glyphshow
grestore
2 setlinecap
0.69 setgray
gsave
57.6 38.016 357.12 266.112 rectclip
57.6 110.66032 m
414.72 110.66032 l
stroke
grestore
0 setlinecap
0 setgray
gsave
/o {
gsave
newpath
translate
0.8 setlinewidth
1 setlinejoin

0 setlinecap

-0 0 m
-3.5 0 l

gsave
0 setgray
fill
grestore
stroke
grestore
} bind def
57.6 110.66 o
grestore
/DejaVuSans 10.000 selectfont
gsave

34.6938 106.863 translate
0 rotate
0 0 m /five glyphshow
6.3623 0 m /period glyphshow
9.54102 0 m /zero glyphshow
grestore
2 setlinecap
0.69 setgray
gsave
57.6 38.016 357.12 266.112 rectclip
57.6 140.828798 m
414.72 140.828798 l
stroke
grestore
0 setlinecap
0 setgray
gsave
/o {
gsave
newpath
translate
0.8 setlinewidth
1 setlinejoin

0 setlinecap

-0 0 m
-3.5 0 l

gsave
0 setgray
fill
grestore
stroke
grestore
} bind def
57.6 140.829 o
grestore
/DejaVuSans 10.000 selectfont
gsave

34.6938 137.032 translate
0 rotate
0 0 m /seven glyphshow
6.3623 0 m /period glyphshow
9.54102 0 m /five glyphshow
grestore
2 setlinecap
0.69 setgray
gsave
57.6 38.016 357.12 266.112 rectclip
57.6 170.997275 m
414.72 170.997275 l
stroke
grestore
0 setlinecap
0 setgray
gsave
/o {
gsave
newpath
translate
0.8 setlinewidth
1 setlinejoin

0 setlinecap

-0 0 m
-3.5 0 l

gsave
0 setgray
fill
grestore
stroke
grestore
} bind def
57.6 170.997 o
grestore
/DejaVuSans 10.000 selectfont
gsave

28.3344 167.2 translate
0 rotate
0 0 m /one glyphshow
6.3623 0 m /zero glyphshow
12.7246 0 m /period glyphshow
15.9033 0 m /zero glyphshow
grestore
2 setlinecap
0.69 setgray
gsave
57.6 38.016 357.12 266.112 rectclip
57.6 201.165753 m
414.72 201.165753 l
stroke
grestore
0 setlinecap
0 setgray
gsave
/o {
gsave
newpath
translate
0.8 setlinewidth
1 setlinejoin

0 setlinecap

-0 0 m
-3.5 0 l

gsave
0 setgray
fill
grestore
stroke
grestore
} bind def
57.6 201.166 o
grestore
/DejaVuSans 10.000 selectfont
gsave

28.3344 197.369 translate
0 rotate
0 0 m /one glyphshow
6.3623 0 m /two glyphshow
12.7246 0 m /period glyphshow
15.9033 0 m /five glyphshow
grestore
2 setlinecap
0.69 setgray
gsave
57.6 38.016 357.12 266.112 rectclip
57.6 231.33423 m
414.72 231.33423 l
stroke
grestore
0 setlinecap
0 setgray
gsave
/o {
gsave
newpath
translate
0.8 setlinewidth
1 setlinejoin

0 setlinecap

-0 0 m
-3.5 0 l

gsave
0 setgray
fill
grestore
stroke
grestore
} bind def
57.6 231.334 o
grestore
/DejaVuSans 10.000 selectfont
gsave

28.3344 227.537 translate
0 rotate
0 0 m /one glyphshow
6.3623 0 m /five glyphshow
12.7246 0 m /period glyphshow
15.9033 0 m /zero glyphshow
grestore
2 setlinecap
0.69 setgray
gsave
57.6 38.016 357.12 266.112 rectclip
57.6 261.502708 m
414.72 261.502708 l
stroke
grestore
0 setlinecap
0 setgray
gsave
/o {
gsave
newpath
translate
0.8 setlinewidth
1 setlinejoin

0 setlinecap

-0 0 m
-3.5 0 l

gsave
0 setgray
fill
grestore
stroke
grestore
} bind def
57.6 261.503 o
grestore
/DejaVuSans 10.000 selectfont
gsave

28.3344 257.706 translate
0 rotate
0 0 m /one glyphshow
6.3623 0 m /seven glyphshow
12.7246 0 m /period glyphshow
15.9033 0 m /five glyphshow
grestore
2 setlinecap
0.69 setgray
gsave
57.6 38.016 357.12 266.112 rectclip
57.6 291.671185 m
414.72 291.671185 l
stroke
grestore
0 setlinecap
0 setgray
gsave
/o {
gsave
newpath
translate
0.8 setlinewidth
1 setlinejoin

0 setlinecap

-0 0 m
-3.5 0 l

gsave
0 setgray
fill
grestore
stroke
grestore
} bind def
57.6 291.671 o
grestore
/DejaVuSans 10.000 selectfont
gsave

28.3344 287.874 translate
0 rotate
0 0 m /two glyphshow
6.3623 0 m /zero glyphshow
12.7246 0 m /period glyphshow
15.9033 0 m /zero glyphshow
grestore
1.5 setlinewidth
2 setlinecap
0.122 0.467 0.706 setrgbcolor
gsave
57.6 38.016 357.12 266.112 rectclip
73.832727 51.142914 m
74.955224 51.485765 l
76.243714 51.740741 l
77.722688 52.000346 l
79.420719 52.295479 l
81.3691 52.623482 l
83.60593 52.991586 l
86.172025 53.41065 l
89.117727 53.894866 l
92.500183 54.461044 l
96.38198 55.130905 l
100.836046 55.933737 l
105.948915 56.89558 l
111.273086 57.972595 l
116.456298 59.118695 l
121.639511 60.353153 l
126.822723 61.686612 l
132.006072 63.12204 l
137.189284 64.655926 l
142.372496 66.262458 l
147.330937 67.841476 l
151.825141 69.266997 l
155.864904 70.468306 l
159.495942 71.407149 l
162.759753 72.070252 l
165.693483 72.473061 l
168.330329 72.656968 l
170.700497 72.677121 l
172.831063 72.589753 l
174.745974 72.443014 l
176.467272 72.274432 l
178.014412 72.110678 l
179.405083 71.969006 l
180.655068 71.851108 l
182.267245 71.748294 l
184.308147 71.701231 l
186.34905 71.761568 l
188.389953 71.962249 l
190.430855 72.307617 l
192.471758 72.801777 l
194.512661 73.427833 l
196.553563 74.156824 l
198.594466 74.977166 l
200.635368 75.854344 l
202.473133 76.66841 l
204.191709 77.374232 l
206.0873 78.064728 l
208.177864 79.061615 l
210.483676 80.153232 l
212.394369 80.923614 l
213.728167 81.389415 l
215.831657 82.004611 l
218.780353 82.700296 l
221.595166 83.386206 l
224.143111 83.908362 l
225.990985 84.186274 l
227.086732 84.318412 l
228.537011 84.453326 l
230.426628 84.566277 l
232.137027 84.584981 l
233.856733 84.641698 l
235.670864 84.687795 l
237.484995 84.607668 l
239.209326 84.573517 l
240.92797 84.515473 l
242.823506 84.386231 l
244.265731 84.26073 l
245.362199 84.153572 l
247.219923 83.953736 l
249.763024 83.655792 l
252.567905 83.267584 l
255.516465 82.762202 l
257.620227 82.391612 l
258.957563 82.152798 l
260.879277 81.810205 l
263.185633 81.404499 l
265.273204 81.008568 l
267.162808 80.579693 l
268.87322 80.220326 l
270.706359 79.808828 l
272.747262 79.285345 l
274.788164 78.736882 l
276.829067 78.171042 l
278.869969 77.55826 l
280.910872 76.89395 l
282.951775 76.178354 l
284.992677 75.411954 l
287.03358 74.595715 l
289.074483 73.767048 l
290.68666 73.050003 l
291.936644 72.441565 l
293.327315 71.80139 l
294.874456 71.082536 l
296.595753 70.283192 l
298.510664 69.411926 l
300.641094 68.494081 l
303.011398 67.580338 l
305.648245 66.750946 l
308.581974 66.095083 l
311.845786 65.658726 l
315.476824 65.38359 l
319.516586 65.111832 l
324.01079 64.670769 l
328.969231 63.958069 l
334.152443 63.006072 l
339.335656 61.921335 l
344.519004 60.783911 l
349.702216 59.641153 l
354.885429 58.517063 l
360.068641 57.417169 l
365.39322 56.332142 l
370.50677 55.31935 l
374.961108 54.441797 l
378.842905 53.687766 l
382.225361 53.037213 l
385.171063 52.474233 l
387.738519 51.985878 l
389.973988 51.560635 l
391.922369 51.186292 l
393.6204 50.85086 l
395.099374 50.539645 l
396.387864 50.264295 l
397.510361 50.112 l
398.487273 50.147841 l
stroke
grestore
1 0.498 0.055 setrgbcolor
gsave
57.6 38.016 357.12 266.112 rectclip
73.832727 241.087095 m
74.955224 258.230031 l
76.243714 267.549677 l
77.722688 273.475973 l
79.420719 277.180662 l
81.3691 279.361239 l
83.60593 280.658484 l
86.172025 281.489927 l
89.117727 282.067955 l
92.500183 282.497554 l
96.38198 282.829408 l
100.836046 283.079203 l
105.948915 283.230045 l
111.273086 283.239699 l
116.456298 283.064722 l
121.639511 282.644777 l
126.822723 281.886944 l
132.006072 280.65245 l
137.189284 278.743389 l
142.372496 275.896692 l
147.330937 271.928933 l
151.825141 266.828047 l
155.864904 260.633855 l
159.495942 253.470652 l
162.759753 245.574958 l
165.693483 237.268973 l
168.330329 228.88817 l
170.700497 220.7282 l
172.831063 213.00869 l
174.745974 205.868415 l
176.467272 199.376158 l
178.014412 193.552436 l
179.405083 188.382765 l
180.655068 183.501506 l
182.267245 177.769495 l
184.308147 171.069679 l
186.34905 164.35309 l
188.389953 157.89957 l
190.430855 151.672434 l
192.471758 145.641394 l
194.512661 139.779779 l
196.553563 134.044993 l
198.594466 128.408194 l
200.635368 122.979196 l
202.473133 118.043633 l
204.191709 113.45911 l
206.0873 108.682475 l
208.177864 103.584123 l
210.483676 98.12206 l
212.394369 93.746786 l
213.728167 90.808738 l
215.831657 86.438653 l
218.780353 80.674664 l
221.595166 75.624461 l
224.143111 71.475933 l
225.990985 68.749668 l
227.086732 67.237986 l
228.537011 65.372971 l
230.426628 63.199513 l
232.137027 61.503187 l
233.856733 60.054992 l
235.670864 58.796423 l
237.484995 57.807452 l
239.209326 57.107845 l
240.92797 56.657261 l
242.823506 56.469372 l
244.265731 56.516748 l
245.362199 56.664296 l
247.219923 57.093316 l
249.763024 58.064476 l
252.567905 59.683485 l
255.516465 62.069245 l
257.620227 64.126168 l
258.957563 65.626868 l
260.879277 68.022849 l
263.185633 71.29987 l
265.273204 74.669809 l
267.162808 78.051334 l
268.87322 81.461458 l
270.706359 85.342813 l
272.747262 89.866033 l
274.788164 94.799545 l
276.829067 100.050187 l
278.869969 105.597446 l
280.910872 111.418514 l
282.951775 117.492756 l
284.992677 123.805933 l
287.03358 130.353216 l
289.074483 136.860074 l
290.68666 142.419642 l
291.936644 147.104806 l
293.327315 152.014666 l
294.874456 157.555046 l
296.595753 163.841674 l
298.510664 171.02141 l
300.641094 179.270678 l
303.011398 188.78823 l
305.648245 199.73456 l
308.581974 212.098809 l
311.845786 225.559983 l
315.476824 239.392834 l
319.516586 252.582492 l
324.01079 264.144259 l
328.969231 273.397535 l
334.152443 280.057528 l
339.335656 284.505568 l
344.519004 287.434324 l
349.702216 289.361486 l
354.885429 290.616495 l
360.068641 291.404496 l
365.39322 291.854609 l
370.50677 292.032 l
374.961108 292.000625 l
378.842905 291.815994 l
382.225361 291.497415 l
385.171063 291.03282 l
387.738519 290.369114 l
389.973988 289.389241 l
391.922369 287.844615 l
393.6204 285.250126 l
395.099374 280.768297 l
396.387864 272.81106 l
397.510361 256.701093 l
398.487273 164.166528 l
stroke
grestore
0.173 0.627 0.173 setrgbcolor
gsave
57.6 38.016 357.12 266.112 rectclip
73.832727 50.323365 m
74.955224 50.323365 l
76.243714 50.323365 l
77.722688 50.323365 l
79.420719 50.323365 l
81.3691 50.323365 l
83.60593 50.323365 l
86.172025 50.323365 l
89.117727 50.323365 l
92.500183 50.323365 l
96.38198 50.323365 l
100.836046 50.323365 l
105.948915 50.323365 l
111.273086 50.323365 l
116.456298 50.323365 l
121.639511 50.323365 l
126.822723 50.323365 l
132.006072 50.323365 l
137.189284 50.323365 l
142.372496 50.323365 l
147.330937 50.323365 l
151.825141 50.323365 l
155.864904 50.323365 l
159.495942 50.323365 l
162.759753 50.323365 l
165.693483 50.323365 l
168.330329 50.323365 l
170.700497 50.323365 l
172.831063 50.323365 l
174.745974 50.323365 l
176.467272 50.323365 l
178.014412 50.323365 l
179.405083 50.323365 l
180.655068 50.323365 l
182.267245 50.323365 l
184.308147 50.323365 l
186.34905 50.323365 l
188.389953 50.323365 l
190.430855 50.323365 l
192.471758 50.323365 l
194.512661 50.323365 l
196.553563 50.323365 l
198.594466 50.323365 l
200.635368 50.323365 l
202.473133 50.323365 l
204.191709 50.323365 l
206.0873 50.323365 l
208.177864 50.323365 l
210.483676 50.323365 l
212.394369 50.323365 l
213.728167 50.323365 l
215.831657 50.323365 l
218.780353 50.323365 l
221.595166 50.323365 l
224.143111 50.323365 l
225.990985 50.323365 l
227.086732 50.323365 l
228.537011 50.323365 l
230.426628 50.323365 l
232.137027 50.323365 l
233.856733 50.323365 l
235.670864 50.323365 l
237.484995 50.323365 l
239.209326 50.323365 l
240.92797 50.323365 l
242.823506 50.323365 l
244.265731 50.323365 l
245.362199 50.323365 l
247.219923 50.323365 l
249.763024 50.323365 l
252.567905 50.323365 l
255.516465 50.323365 l
257.620227 50.323365 l
258.957563 50.323365 l
260.879277 50.323365 l
263.185633 50.323365 l
265.273204 50.323365 l
267.162808 50.323365 l
268.87322 50.323365 l
270.706359 50.323365 l
272.747262 50.323365 l
274.788164 50.323365 l
276.829067 50.323365 l
278.869969 50.323365 l
280.910872 50.323365 l
282.951775 50.323365 l
284.992677 50.323365 l
287.03358 50.323365 l
289.074483 50.323365 l
290.68666 50.323365 l
291.936644 50.323365 l
293.327315 50.323365 l
294.874456 50.323365 l
296.595753 50.323365 l
298.510664 50.323365 l
300.641094 50.323365 l
303.011398 50.323365 l
305.648245 50.323365 l
308.581974 50.323365 l
311.845786 50.323365 l
315.476824 50.323365 l
319.516586 50.323365 l
324.01079 50.323365 l
328.969231 50.323365 l
334.152443 50.323365 l
339.335656 50.323365 l
344.519004 50.323365 l
349.702216 50.323365 l
354.885429 50.323365 l
360.068641 50.323365 l
365.39322 50.323365 l
370.50677 50.323365 l
374.961108 50.323365 l
378.842905 50.323365 l
382.225361 50.323365 l
385.171063 50.323365 l
387.738519 50.323365 l
389.973988 50.323365 l
391.922369 50.323365 l
393.6204 50.323365 l
395.099374 50.323365 l
396.387864 50.323365 l
397.510361 50.323365 l
398.487273 50.323365 l
stroke
grestore
0.8 setlinewidth
0 setlinejoin
0 setgray
gsave
57.6 38.016 m
57.6 304.128 l
stroke
grestore
gsave
414.72 38.016 m
414.72 304.128 l
stroke
grestore
gsave
57.6 38.016 m
414.72 38.016 l
stroke
grestore
gsave
57.6 304.128 m
414.72 304.128 l
stroke
grestore
/DejaVuSans 12.000 selectfont
gsave

134.715 310.128 translate
0 rotate
0 0 m /V glyphshow
7.33398 0 m /e glyphshow
14.7168 0 m /l glyphshow
18.0508 0 m /o glyphshow
25.3926 0 m /c glyphshow
31.9902 0 m /i glyphshow
35.3242 0 m /t glyphshow
40.0293 0 m /y glyphshow
47.1309 0 m /P glyphshow
54.1172 0 m /r glyphshow
58.8008 0 m /o glyphshow
66.1426 0 m /f glyphshow
70.3672 0 m /i glyphshow
73.7012 0 m /l glyphshow
77.0352 0 m /e glyphshow
84.418 0 m /at glyphshow
96.418 0 m /zero glyphshow
104.053 0 m /period glyphshow
107.867 0 m /five glyphshow
115.502 0 m /s glyphshow
121.754 0 m /space glyphshow
125.568 0 m /parenleft glyphshow
130.25 0 m /l glyphshow
133.584 0 m /i glyphshow
136.918 0 m /n glyphshow
144.523 0 m /e glyphshow
151.906 0 m /one glyphshow
159.541 0 m /four glyphshow
167.176 0 m /zero glyphshow
174.811 0 m /m glyphshow
186.5 0 m /m glyphshow
198.189 0 m /parenright glyphshow
grestore
1 setlinewidth
0 setlinecap
0.8 setgray
gsave
64.6 147.142312 m
144.19375 147.142312 l
145.527083 147.142312 146.19375 147.808979 146.19375 149.142312 c
146.19375 193.001687 l
146.19375 194.335021 145.527083 195.001687 144.19375 195.001687 c
64.6 195.001687 l
63.266667 195.001687 62.6 194.335021 62.6 193.001687 c
62.6 149.142312 l
62.6 147.808979 63.266667 147.142312 64.6 147.142312 c
cl
gsave
1 setgray
fill
grestore
stroke
grestore
1.5 setlinewidth
1 setlinejoin
2 setlinecap
0.122 0.467 0.706 setrgbcolor
gsave
66.6 186.907937 m
76.6 186.907937 l
86.6 186.907937 l