%!PS-Adobe-3.0 EPSF-3.0
%%LanguageLevel: 3
%%Title: line140mm_0.38.eps
%%Creator: Matplotlib v3.10.0, https://matplotlib.org/
%%CreationDate: Mon Feb 17 10:46:15 2025
%%Orientation: portrait
%%BoundingBox: 0 0 461 346
%%HiResBoundingBox: 0.000000 0.000000 460.800000 345.600000
%%EndComments
%%BeginProlog
/mpldict 9 dict def
mpldict begin
/_d { bind def } bind def
/m { moveto } _d
/l { lineto } _d
/r { rlineto } _d
/c { curveto } _d
/cl { closepath } _d
/ce { closepath eofill } _d
/sc { setcachedevice } _d
%!PS-Adobe-3.0 Resource-Font
%%Creator: Converted from TrueType to Type 3 by Matplotlib.
10 dict begin
/FontName /DejaVuSans def
/PaintType 0 def
/FontMatrix [0.00048828125 0 0 0.00048828125 0 0] def
/FontBBox [-2090 -948 3673 2524] def
/FontType 3 def
/Encoding [/minus /space /parenleft /parenright /period /slash /zero /one /two /three /four /five /seven /eight /at /P /U /V /bracketleft /bracketright /underscore /c /e /f /i /l /m /n /o /r /s /t /x /y /z] def
/CharStrings 36 dict dup begin
/.notdef 0 def
/minus{1716 0 217 557 1499 727 sc
217 727 m
1499 727 l
1499 557 l
217 557 l
217 727 l

ce} _d
/space{651 0 0 0 0 0 sc
ce} _d
/parenleft{799 0 176 -270 635 1554 sc
635 1554 m
546 1401 479 1249 436 1099 c
393 949 371 797 371 643 c
371 489 393 336 436 185 c
480 34 546 -117 635 -270 c
475 -270 l
375 -113 300 41 250 192 c
201 343 176 494 176 643 c
176 792 201 941 250 1092 c
299 1243 374 1397 475 1554 c
635 1554 l

ce} _d
/parenright{799 0 164 -270 623 1554 sc
164 1554 m
324 1554 l
424 1397 499 1243 548 1092 c
598 941 623 792 623 643 c
623 494 598 343 548 192 c
499 41 424 -113 324 -270 c
164 -270 l
253 -117 319 34 362 185 c
406 336 428 489 428 643 c
428 797 406 949 362 1099 c
319 1249 253 1401 164 1554 c

ce} _d
/period{651 0 219 0 430 254 sc
219 254 m
430 254 l
430 0 l
219 0 l
219 254 l

ce} _d
/slash{690 0 0 -190 690 1493 sc
520 1493 m
690 1493 l
170 -190 l
0 -190 l
520 1493 l

ce} _d
/zero{1303 0 135 -29 1167 1520 sc
651 1360 m
547 1360 469 1309 416 1206 c
364 1104 338 950 338 745 c
338 540 364 387 416 284 c
469 182 547 131 651 131 c
756 131 834 182 886 284 c
939 387 965 540 965 745 c
965 950 939 1104 886 1206 c
834 1309 756 1360 651 1360 c

651 1520 m
818 1520 946 1454 1034 1321 c
1123 1189 1167 997 1167 745 c
1167 494 1123 302 1034 169 c
946 37 818 -29 651 -29 c
484 -29 356 37 267 169 c
179 302 135 494 135 745 c
135 997 179 1189 267 1321 c
356 1454 484 1520 651 1520 c

ce} _d
/one{1303 0 225 0 1114 1493 sc
254 170 m
584 170 l
584 1309 l
225 1237 l
225 1421 l
582 1493 l
784 1493 l
784 170 l
1114 170 l
1114 0 l
254 0 l
254 170 l

ce} _d
/two{1303 0 150 0 1098 1520 sc
393 170 m
1098 170 l
1098 0 l
150 0 l
150 170 l
227 249 331 356 463 489 c
596 623 679 709 713 748 c
778 821 823 882 848 932 c
874 983 887 1032 887 1081 c
887 1160 859 1225 803 1275 c
748 1325 675 1350 586 1350 c
523 1350 456 1339 385 1317 c
315 1295 240 1262 160 1217 c
160 1421 l
241 1454 317 1478 388 1495 c
459 1512 523 1520 582 1520 c
737 1520 860 1481 952 1404 c
1044 1327 1090 1223 1090 1094 c
1090 1033 1078 974 1055 919 c
1032 864 991 800 930 725 c
913 706 860 650 771 557 c
682 465 556 336 393 170 c

ce} _d
/three{1303 0 156 -29 1139 1520 sc
831 805 m
928 784 1003 741 1057 676 c
1112 611 1139 530 1139 434 c
1139 287 1088 173 987 92 c
886 11 742 -29 555 -29 c
492 -29 428 -23 361 -10 c
295 2 227 20 156 45 c
156 240 l
212 207 273 183 340 166 c
407 149 476 141 549 141 c
676 141 772 166 838 216 c
905 266 938 339 938 434 c
938 522 907 591 845 640 c
784 690 698 715 588 715 c
414 715 l
414 881 l
596 881 l
695 881 771 901 824 940 c
877 980 903 1037 903 1112 c
903 1189 876 1247 821 1288 c
767 1329 689 1350 588 1350 c
533 1350 473 1344 410 1332 c
347 1320 277 1301 201 1276 c
201 1456 l
278 1477 349 1493 416 1504 c
483 1515 547 1520 606 1520 c
759 1520 881 1485 970 1415 c
1059 1346 1104 1252 1104 1133 c
1104 1050 1080 980 1033 923 c
986 866 918 827 831 805 c

ce} _d
/four{1303 0 100 0 1188 1493 sc
774 1317 m
264 520 l
774 520 l
774 1317 l

721 1493 m
975 1493 l
975 520 l
1188 520 l
1188 352 l
975 352 l
975 0 l
774 0 l
774 352 l
100 352 l
100 547 l
721 1493 l

ce} _d
/five{1303 0 158 -29 1124 1493 sc
221 1493 m
1014 1493 l
1014 1323 l
406 1323 l
406 957 l
435 967 465 974 494 979 c
523 984 553 987 582 987 c
749 987 881 941 978 850 c
1075 759 1124 635 1124 479 c
1124 318 1074 193 974 104 c
874 15 733 -29 551 -29 c
488 -29 424 -24 359 -13 c
294 -2 227 14 158 35 c
158 238 l
218 205 280 181 344 165 c
408 149 476 141 547 141 c
662 141 754 171 821 232 c
888 293 922 375 922 479 c
922 583 888 665 821 726 c
754 787 662 817 547 817 c
493 817 439 811 385 799 c
332 787 277 768 221 743 c
221 1493 l

ce} _d
/seven{1303 0 168 0 1128 1493 sc
168 1493 m
1128 1493 l
1128 1407 l
586 0 l
375 0 l
885 1323 l
168 1323 l
168 1493 l

ce} _d
/eight{1303 0 139 -29 1163 1520 sc
651 709 m
555 709 479 683 424 632 c
369 581 342 510 342 420 c
342 330 369 259 424 208 c
479 157 555 131 651 131 c
747 131 823 157 878 208 c
933 260 961 331 961 420 c
961 510 933 581 878 632 c
823 683 748 709 651 709 c

449 795 m
362 816 295 857 246 916 c
198 975 174 1048 174 1133 c
174 1252 216 1347 301 1416 c
386 1485 503 1520 651 1520 c
800 1520 916 1485 1001 1416 c
1086 1347 1128 1252 1128 1133 c
1128 1048 1104 975 1055 916 c
1007 857 940 816 854 795 c
951 772 1027 728 1081 662 c
1136 596 1163 515 1163 420 c
1163 275 1119 164 1030 87 c
942 10 816 -29 651 -29 c
486 -29 360 10 271 87 c
183 164 139 275 139 420 c
139 515 166 596 221 662 c
276 728 352 772 449 795 c

375 1114 m
375 1037 399 976 447 933 c
496 890 564 868 651 868 c
738 868 805 890 854 933 c
903 976 928 1037 928 1114 c
928 1191 903 1252 854 1295 c
805 1338 738 1360 651 1360 c
564 1360 496 1338 447 1295 c
399 1252 375 1191 375 1114 c

ce} _d
/at{2048 0 135 -356 1905 1442 sc
762 537 m
762 442 786 367 833 312 c
880 258 945 231 1028 231 c
1110 231 1174 258 1221 313 c
1268 368 1292 442 1292 537 c
1292 630 1268 704 1220 759 c
1172 814 1107 842 1026 842 c
945 842 881 815 833 760 c
786 705 762 631 762 537 c

1307 238 m
1267 187 1221 149 1169 124 c
1118 100 1058 88 989 88 c
874 88 781 129 709 212 c
638 295 602 404 602 537 c
602 670 638 779 710 862 c
782 945 875 987 989 987 c
1058 987 1118 974 1170 949 c
1222 924 1268 887 1307 836 c
1307 967 l
1450 967 l
1450 231 l
1547 246 1623 290 1678 364 c
1733 439 1761 535 1761 653 c
1761 724 1750 791 1729 854 c
1708 917 1677 975 1634 1028 c
1565 1115 1480 1182 1380 1228 c
1281 1275 1172 1298 1055 1298 c
973 1298 894 1287 819 1265 c
744 1244 674 1212 610 1169 c
505 1101 423 1012 364 901 c
305 791 276 672 276 543 c
276 437 295 338 333 245 c
372 152 427 71 500 0 c
570 -69 651 -122 743 -158 c
835 -195 933 -213 1038 -213 c
1124 -213 1208 -198 1291 -169 c
1374 -140 1451 -99 1520 -45 c
1610 -156 l
1527 -221 1436 -270 1337 -304 c
1239 -339 1139 -356 1038 -356 c
915 -356 798 -334 689 -290 c
580 -247 482 -183 397 -100 c
312 -17 247 80 202 189 c
157 299 135 417 135 543 c
135 664 158 780 203 890 c
248 1000 313 1097 397 1180 c
483 1265 582 1329 695 1374 c
808 1419 927 1442 1053 1442 c
1194 1442 1325 1413 1446 1355 c
1567 1297 1669 1215 1751 1108 c
1801 1043 1839 972 1865 895 c
1892 818 1905 739 1905 657 c
1905 482 1852 343 1746 242 c
1640 141 1494 88 1307 84 c
1307 238 l

ce} _d
/P{1235 0 201 0 1165 1493 sc
403 1327 m
403 766 l
657 766 l
751 766 824 790 875 839 c
926 888 952 957 952 1047 c
952 1136 926 1205 875 1254 c
824 1303 751 1327 657 1327 c
403 1327 l

201 1493 m
657 1493 l
824 1493 951 1455 1036 1379 c
1122 1304 1165 1193 1165 1047 c
1165 900 1122 788 1036 713 c
951 638 824 600 657 600 c
403 600 l
403 0 l
201 0 l
201 1493 l

ce} _d
/U{1499 0 178 -29 1321 1493 sc
178 1493 m
381 1493 l
381 586 l
381 426 410 311 468 240 c
526 170 620 135 750 135 c
879 135 973 170 1031 240 c
1089 311 1118 426 1118 586 c
1118 1493 l
1321 1493 l
1321 561 l
1321 366 1273 219 1176 120 c
1080 21 938 -29 750 -29 c
561 -29 419 21 322 120 c
226 219 178 366 178 561 c
178 1493 l

ce} _d
/V{1401 0 16 0 1384 1493 sc
586 0 m
16 1493 l
227 1493 l
700 236 l
1174 1493 l
1384 1493 l
815 0 l
586 0 l

ce} _d
/bracketleft{799 0 176 -270 600 1556 sc
176 1556 m
600 1556 l
600 1413 l
360 1413 l
360 -127 l
600 -127 l
600 -270 l
176 -270 l
176 1556 l

ce} _d
/bracketright{799 0 199 -270 623 1556 sc
623 1556 m
623 -270 l
199 -270 l
199 -127 l
438 -127 l
438 1413 l
199 1413 l
199 1556 l
623 1556 l

ce} _d
/underscore{1024 0 -20 -483 1044 -340 sc
1044 -340 m
1044 -483 l
-20 -483 l
-20 -340 l
1044 -340 l

ce} _d
/c{1126 0 113 -29 999 1147 sc
999 1077 m
999 905 l
947 934 895 955 842 969 c
790 984 737 991 684 991 c
565 991 472 953 406 877 c
340 802 307 696 307 559 c
307 422 340 316 406 240 c
472 165 565 127 684 127 c
737 127 790 134 842 148 c
895 163 947 184 999 213 c
999 43 l
948 19 894 1 839 -11 c
784 -23 726 -29 664 -29 c
495 -29 361 24 262 130 c
163 236 113 379 113 559 c
113 742 163 885 263 990 c
364 1095 501 1147 676 1147 c
733 1147 788 1141 842 1129 c
896 1118 948 1100 999 1077 c

ce} _d
/e{1260 0 113 -29 1151 1147 sc
1151 606 m
1151 516 l
305 516 l
313 389 351 293 419 226 c
488 160 583 127 705 127 c
776 127 844 136 910 153 c
977 170 1043 196 1108 231 c
1108 57 l
1042 29 974 8 905 -7 c
836 -22 765 -29 694 -29 c
515 -29 374 23 269 127 c
165 231 113 372 113 549 c
113 732 162 878 261 985 c
360 1093 494 1147 662 1147 c
813 1147 932 1098 1019 1001 c
1107 904 1151 773 1151 606 c

967 660 m
966 761 937 841 882 901 c
827 961 755 991 664 991 c
561 991 479 962 417 904 c
356 846 320 764 311 659 c
967 660 l

ce} _d
/f{721 0 47 0 760 1556 sc
760 1556 m
760 1403 l
584 1403 l
518 1403 472 1390 446 1363 c
421 1336 408 1288 408 1219 c
408 1120 l
711 1120 l
711 977 l
408 977 l
408 0 l
223 0 l
223 977 l
47 977 l
47 1120 l
223 1120 l
223 1198 l
223 1323 252 1413 310 1470 c
368 1527 460 1556 586 1556 c
760 1556 l

ce} _d
/i{569 0 193 0 377 1556 sc
193 1120 m
377 1120 l
377 0 l
193 0 l
193 1120 l

193 1556 m
377 1556 l
377 1323 l
193 1323 l
193 1556 l

ce} _d
/l{569 0 193 0 377 1556 sc
193 1556 m
377 1556 l
377 0 l
193 0 l
193 1556 l

ce} _d
/m{1995 0 186 0 1821 1147 sc
1065 905 m
1111 988 1166 1049 1230 1088 c
1294 1127 1369 1147 1456 1147 c
1573 1147 1663 1106 1726 1024 c
1789 943 1821 827 1821 676 c
1821 0 l
1636 0 l
1636 670 l
1636 777 1617 857 1579 909 c
1541 961 1483 987 1405 987 c
1310 987 1234 955 1179 892 c
1124 829 1096 742 1096 633 c
1096 0 l
911 0 l
911 670 l
911 778 892 858 854 909 c
816 961 757 987 678 987 c
584 987 509 955 454 891 c
399 828 371 742 371 633 c
371 0 l
186 0 l
186 1120 l
371 1120 l
371 946 l
413 1015 463 1065 522 1098 c
581 1131 650 1147 731 1147 c
812 1147 881 1126 938 1085 c
995 1044 1038 984 1065 905 c

ce} _d
/n{1298 0 186 0 1124 1147 sc
1124 676 m
1124 0 l
940 0 l
940 670 l
940 776 919 855 878 908 c
837 961 775 987 692 987 c
593 987 514 955 457 892 c
400 829 371 742 371 633 c
371 0 l
186 0 l
186 1120 l
371 1120 l
371 946 l
415 1013 467 1064 526 1097 c
586 1130 655 1147 733 1147 c
862 1147 959 1107 1025 1027 c
1091 948 1124 831 1124 676 c

ce} _d
/o{1253 0 113 -29 1141 1147 sc
627 991 m
528 991 450 952 393 875 c
336 798 307 693 307 559 c
307 425 335 319 392 242 c
449 165 528 127 627 127 c
725 127 803 166 860 243 c
917 320 946 426 946 559 c
946 692 917 797 860 874 c
803 952 725 991 627 991 c

627 1147 m
787 1147 913 1095 1004 991 c
1095 887 1141 743 1141 559 c
1141 376 1095 232 1004 127 c
913 23 787 -29 627 -29 c
466 -29 340 23 249 127 c
158 232 113 376 113 559 c
113 743 158 887 249 991 c
340 1095 466 1147 627 1147 c

ce} _d
/r{842 0 186 0 842 1147 sc
842 948 m
821 960 799 969 774 974 c
750 980 723 983 694 983 c
590 983 510 949 454 881 c
399 814 371 717 371 590 c
371 0 l
186 0 l
186 1120 l
371 1120 l
371 946 l
410 1014 460 1064 522 1097 c
584 1130 659 1147 748 1147 c
761 1147 775 1146 790 1144 c
805 1143 822 1140 841 1137 c
842 948 l

ce} _d
/s{1067 0 111 -29 967 1147 sc
907 1087 m
907 913 l
855 940 801 960 745 973 c
689 986 631 993 571 993 c
480 993 411 979 365 951 c
320 923 297 881 297 825 c
297 782 313 749 346 724 c
379 700 444 677 543 655 c
606 641 l
737 613 829 573 884 522 c
939 471 967 400 967 309 c
967 205 926 123 843 62 c
761 1 648 -29 504 -29 c
444 -29 381 -23 316 -11 c
251 0 183 18 111 41 c
111 231 l
179 196 246 169 312 151 c
378 134 443 125 508 125 c
595 125 661 140 708 169 c
755 199 778 241 778 295 c
778 345 761 383 727 410 c
694 437 620 462 506 487 c
442 502 l
328 526 246 563 195 612 c
144 662 119 730 119 817 c
119 922 156 1004 231 1061 c
306 1118 412 1147 549 1147 c
617 1147 681 1142 741 1132 c
801 1122 856 1107 907 1087 c

ce} _d
/t{803 0 55 0 754 1438 sc
375 1438 m
375 1120 l
754 1120 l
754 977 l
375 977 l
375 369 l
375 278 387 219 412 193 c
437 167 488 154 565 154 c
754 154 l
754 0 l
565 0 l
423 0 325 26 271 79 c
217 132 190 229 190 369 c
190 977 l
55 977 l
55 1120 l
190 1120 l
190 1438 l
375 1438 l

ce} _d
/x{1212 0 59 0 1145 1120 sc
1124 1120 m
719 575 l
1145 0 l
928 0 l
602 440 l
276 0 l
59 0 l
494 586 l
96 1120 l
313 1120 l
610 721 l
907 1120 l
1124 1120 l

ce} _d
/y{1212 0 61 -426 1151 1120 sc
659 -104 m
607 -237 556 -324 507 -365 c
458 -406 392 -426 309 -426 c
162 -426 l
162 -272 l
270 -272 l
321 -272 360 -260 388 -236 c
416 -212 447 -155 481 -66 c
514 18 l
61 1120 l
256 1120 l
606 244 l
956 1120 l
1151 1120 l
659 -104 l

ce} _d
/z{1075 0 88 0 987 1120 sc
113 1120 m
987 1120 l
987 952 l
295 147 l
987 147 l
987 0 l
88 0 l
88 168 l
780 973 l
113 973 l
113 1120 l

ce} _d
end readonly def

/BuildGlyph {
 exch begin
 CharStrings exch
 2 copy known not {pop /.notdef} if
 true 3 1 roll get exec
 end
} _d

/BuildChar {
 1 index /Encoding get exch get
 1 index /BuildGlyph get exec
} _d

FontName currentdict end definefont pop
end
%%EndProlog
mpldict begin
0 0 translate
0 0 460.8 345.6 rectclip
gsave
0 0 m
460.8 0 l
460.8 345.6 l
0 345.6 l
cl
1 setgray
fill
grestore
gsave
57.6 38.016 m
414.72 38.016 l
414.72 304.128 l
57.6 304.128 l
cl
1 setgray
fill
grestore
0.8 setlinewidth
1 setlinejoin
2 setlinecap
[] 0 setdash
0.69 setgray
gsave
57.6 38.016 357.12 266.112 rectclip
99.610688 38.016 m
99.610688 304.128 l
stroke
grestore
0 setlinecap
0 setgray
gsave
/o {
gsave
newpath
translate
0.8 setlinewidth
1 setlinejoin

0 setlinecap

0 0 m
0 -3.5 l

gsave
0 setgray
fill
grestore
stroke
grestore
} bind def
99.6107 38.016 o
grestore
/DejaVuSans 10.000 selectfont
gsave

84.2904 23.4222 translate
0 rotate
0 0 m /minus glyphshow
8.37891 0 m /zero glyphshow
14.7412 0 m /period glyphshow
17.9199 0 m /one glyphshow
24.2822 0 m /zero glyphshow
grestore
2 setlinecap
0.69 setgray
gsave
57.6 38.016 357.12 266.112 rectclip
167.640776 38.016 m
167.640776 304.128 l
stroke
grestore
0 setlinecap
0 setgray
gsave
/o {
gsave
newpath
translate
0.8 setlinewidth
1 setlinejoin

0 setlinecap

0 0 m
0 -3.5 l

gsave
0 setgray
fill
grestore
stroke
grestore
} bind def
167.641 38.016 o
grestore
/DejaVuSans 10.000 selectfont
gsave

152.32 23.4222 translate
0 rotate
0 0 m /minus glyphshow
8.37891 0 m /zero glyphshow
14.7412 0 m /period glyphshow
17.9199 0 m /zero glyphshow
24.2822 0 m /five glyphshow
grestore
2 setlinecap
0.69 setgray
gsave
57.6 38.016 357.12 266.112 rectclip
235.670864 38.016 m
235.670864 304.128 l
stroke
grestore
0 setlinecap
0 setgray
gsave
/o {
gsave
newpath
translate
0.8 setlinewidth
1 setlinejoin

0 setlinecap

0 0 m
0 -3.5 l

gsave
0 setgray
fill
grestore
stroke
grestore
} bind def
235.671 38.016 o
grestore
/DejaVuSans 10.000 selectfont
gsave

224.538 23.4222 translate
0 rotate
0 0 m /zero glyphshow
6.3623 0 m /period glyphshow
9.54102 0 m /zero glyphshow
15.9033 0 m /zero glyphshow
grestore
2 setlinecap
0.69 setgray
gsave
57.6 38.016 357.12 266.112 rectclip
303.700951 38.016 m
303.700951 304.128 l
stroke
grestore
0 setlinecap
0 setgray
gsave
/o {
gsave
newpath
translate
0.8 setlinewidth
1 setlinejoin

0 setlinecap

0 0 m
0 -3.5 l

gsave
0 setgray
fill
grestore
stroke
grestore
} bind def
303.701 38.016 o
grestore
/DejaVuSans 10.000 selectfont
gsave

292.568 23.4222 translate
0 rotate
0 0 m /zero glyphshow
6.3623 0 m /period glyphshow
9.54102 0 m /zero glyphshow
15.9033 0 m /five glyphshow
grestore
2 setlinecap
0.69 setgray
gsave
57.6 38.016 357.12 266.112 rectclip
371.731039 38.016 m
371.731039 304.128 l
stroke
grestore
0 setlinecap
0 setgray
gsave
/o {
gsave
newpath
translate
0.8 setlinewidth
1 setlinejoin

0 setlinecap

0 0 m
0 -3.5 l

gsave
0 setgray
fill
grestore
stroke
grestore
} bind def
371.731 38.016 o
grestore
/DejaVuSans 10.000 selectfont
gsave

360.598 23.4222 translate
0 rotate
0 0 m /zero glyphshow
6.3623 0 m /period glyphshow
9.54102 0 m /one glyphshow
15.9033 0 m /zero glyphshow
grestore
/DejaVuSans 10.000 selectfont
gsave

222.824 9.75037 translate
0 rotate
0 0 m /x glyphshow
5.91797 0 m /space glyphshow
9.09668 0 m /bracketleft glyphshow
12.998 0 m /m glyphshow
22.7393 0 m /bracketright glyphshow
grestore
2 setlinecap
0.69 setgray
gsave
57.6 38.016 357.12 266.112 rectclip
57.6 50.345546 m
414.72 50.345546 l
stroke
grestore
0 setlinecap
0 setgray
gsave
/o {
gsave
newpath
translate
0.8 setlinewidth
1 setlinejoin

0 setlinecap

-0 0 m
-3.5 0 l

gsave
0 setgray
fill
grestore
stroke
grestore
} bind def
57.6 50.3455 o
grestore
/DejaVuSans 10.000 selectfont
gsave

34.6938 46.5487 translate
0 rotate
0 0 m /zero glyphshow
6.3623 0 m /period glyphshow
9.54102 0 m /zero glyphshow
grestore
2 setlinecap
0.69 setgray
gsave
57.6 38.016 357.12 266.112 rectclip
57.6 80.270124 m
414.72 80.270124 l
stroke
grestore
0 setlinecap
0 setgray
gsave
/o {
gsave
newpath
translate
0.8 setlinewidth
1 setlinejoin

0 setlinecap

-0 0 m
-3.5 0 l

gsave
0 setgray
fill
grestore
stroke
grestore
} bind def
57.6 80.2701 o
grestore
/DejaVuSans 10.000 selectfont
gsave

34.6938 76.4732 translate
0 rotate
0 0 m /two glyphshow
6.3623 0 m /period glyphshow
9.54102 0 m /five glyphshow
grestore
2 setlinecap
0.69 setgray
gsave
57.6 38.016 357.12 266.112 rectclip
57.6 110.194702 m
414.72 110.194702 l
stroke
grestore
0 setlinecap
0 setgray
gsave
/o {
gsave
newpath
translate
0.8 setlinewidth
1 setlinejoin

0 setlinecap

-0 0 m
-3.5 0 l

gsave
0 setgray
fill
grestore
stroke
grestore
} bind def
57.6 110.195 o
grestore
/DejaVuSans 10.000 selectfont
gsave

34.6938 106.398 translate
0 rotate
0 0 m /five glyphshow
6.3623 0 m /period glyphshow
9.54102 0 m /zero glyphshow
grestore
2 setlinecap
0.69 setgray
gsave
57.6 38.016 357.12 266.112 rectclip
57.6 140.11928 m
414.72 140.11928 l
stroke
grestore
0 setlinecap
0 setgray
gsave
/o {
gsave
newpath
translate
0.8 setlinewidth
1 setlinejoin

0 setlinecap

-0 0 m
-3.5 0 l

gsave
0 setgray
fill
grestore
stroke
grestore
} bind def
57.6 140.119 o
grestore
/DejaVuSans 10.000 selectfont
gsave

34.6938 136.322 translate
0 rotate
0 0 m /seven glyphshow
6.3623 0 m /period glyphshow
9.54102 0 m /five glyphshow
grestore
2 setlinecap
0.69 setgray
gsave
57.6 38.016 357.12 266.112 rectclip
57.6 170.043859 m
414.72 170.043859 l
stroke
grestore
0 setlinecap
0 setgray
gsave
/o {
gsave
newpath
translate
0.8 setlinewidth
1 setlinejoin

0 setlinecap

-0 0 m
-3.5 0 l

gsave
0 setgray
fill
grestore
stroke
grestore
} bind def
57.6 170.044 o
grestore
/DejaVuSans 10.000 selectfont
gsave

28.3344 166.247 translate
0 rotate
0 0 m /one glyphshow
6.3623 0 m /zero glyphshow
12.7246 0 m /period glyphshow
15.9033 0 m /zero glyphshow
grestore
2 setlinecap
0.69 setgray
gsave
57.6 38.016 357.12 266.112 rectclip
57.6 199.968437 m
414.72 199.968437 l
stroke
grestore
0 setlinecap
0 setgray
gsave
/o {
gsave
newpath
translate
0.8 setlinewidth
1 setlinejoin

0 setlinecap

-0 0 m
-3.5 0 l

gsave
0 setgray
fill
grestore
stroke
grestore
} bind def
57.6 199.968 o
grestore
/DejaVuSans 10.000 selectfont
gsave

28.3344 196.172 translate
0 rotate
0 0 m /one glyphshow
6.3623 0 m /two glyphshow
12.7246 0 m /period glyphshow
15.9033 0 m /five glyphshow
grestore
2 setlinecap
0.69 setgray
gsave
57.6 38.016 357.12 266.112 rectclip
57.6 229.893015 m
414.72 229.893015 l
stroke
grestore
0 setlinecap
0 setgray
gsave
/o {
gsave
newpath
translate
0.8 setlinewidth
1 setlinejoin

0 setlinecap

-0 0 m
-3.5 0 l

gsave
0 setgray
fill
grestore
stroke
grestore
} bind def
57.6 229.893 o
grestore
/DejaVuSans 10.000 selectfont
gsave

28.3344 226.096 translate
0 rotate
0 0 m /one glyphshow
6.3623 0 m /five glyphshow
12.7246 0 m /period glyphshow
15.9033 0 m /zero glyphshow
grestore
2 setlinecap
0.69 setgray
gsave
57.6 38.016 357.12 266.112 rectclip
57.6 259.817593 m
414.72 259.817593 l
stroke
grestore
0 setlinecap
0 setgray
gsave
/o {
gsave
newpath
translate
0.8 setlinewidth
1 setlinejoin

0 setlinecap

-0 0 m
-3.5 0 l

gsave
0 setgray
fill
grestore
stroke
grestore
} bind def
57.6 259.818 o
grestore
/DejaVuSans 10.000 selectfont
gsave

28.3344 256.021 translate
0 rotate
0 0 m /one glyphshow
6.3623 0 m /seven glyphshow
12.7246 0 m /period glyphshow
15.9033 0 m /five glyphshow
grestore
2 setlinecap
0.69 setgray
gsave
57.6 38.016 357.12 266.112 rectclip
57.6 289.742171 m
414.72 289.742171 l
stroke
grestore
0 setlinecap
0 setgray
gsave
/o {
gsave
newpath
translate
0.8 setlinewidth
1 setlinejoin

0 setlinecap

-0 0 m
-3.5 0 l

gsave
0 setgray
fill
grestore
stroke
grestore
} bind def
57.6 289.742 o
grestore
/DejaVuSans 10.000 selectfont
gsave

28.3344 285.945 translate
0 rotate
0 0 m /two glyphshow
6.3623 0 m /zero glyphshow
12.7246 0 m /period glyphshow
15.9033 0 m /zero glyphshow
grestore
1.5 setlinewidth
2 setlinecap
0.122 0.467 0.706 setrgbcolor
gsave
57.6 38.016 357.12 266.112 rectclip
73.832727 51.14179 m
74.955224 51.474506 l
76.243714 51.722292 l
77.722688 51.976447 l
79.420719 52.267889 l
81.3691 52.593648 l
83.60593 52.960248 l
86.172025 53.378079 l
89.117727 53.861097 l
92.500183 54.426097 l
96.38198 55.094923 l
100.836046 55.897405 l
105.948915 56.860653 l
111.273086 57.94196 l
116.456298 59.096103 l
121.639511 60.343287 l
126.822723 61.695364 l
132.006072 63.156736 l
137.189284 64.726221 l
142.372496 66.38105 l
147.330937 68.02343 l
151.825141 69.528756 l
155.864904 70.828082 l
159.495942 71.883222 l
162.759753 72.678139 l
165.693483 73.221809 l
168.330329 73.546909 l
170.700497 73.700721 l
172.831063 73.733998 l
174.745974 73.692223 l
176.467272 73.611546 l
178.014412 73.5189 l
179.405083 73.432837 l
180.655068 73.359342 l
182.267245 73.297937 l
184.308147 73.281538 l
186.34905 73.358145 l
188.389953 73.556246 l
190.430855 73.900977 l
192.471758 74.391979 l
194.512661 75.025183 l
196.553563 75.785986 l
198.594466 76.665649 l
200.635368 77.631853 l
202.473133 78.547426 l
204.191709 79.36712 l
206.0873 80.202016 l
208.177864 81.370989 l
210.483676 82.681087 l
212.394369 83.655432 l
213.728167 84.266132 l
215.831657 85.105218 l
218.780353 86.105297 l
221.595166 87.058215 l
224.143111 87.812554 l
225.990985 88.245623 l
227.086732 88.465149 l
228.537011 88.709932 l
230.426628 88.955194 l
232.137027 89.083032 l
233.856733 89.226431 l
235.670864 89.350797 l
237.484995 89.346129 l
239.209326 89.359056 l
240.92797 89.335715 l
242.823506 89.239597 l
244.265731 89.133784 l
245.362199 89.038863 l
247.219923 88.857161 l
249.763024 88.578025 l
252.567905 88.194033 l
255.516465 87.662452 l
257.620227 87.268286 l
258.957563 87.012131 l
260.879277 86.643939 l
263.185633 86.205484 l
265.273204 85.773014 l
267.162808 85.290989 l
268.87322 84.867377 l
270.706359 84.407616 l
272.747262 83.824924 l
274.788164 83.202493 l
276.829067 82.553609 l
278.869969 81.850142 l
280.910872 81.086826 l
282.951775 80.264857 l
284.992677 79.385434 l
287.03358 78.450351 l
289.074483 77.503178 l
290.68666 76.68492 l
291.936644 75.989114 l
293.327315 75.254525 l
294.874456 74.425375 l
296.595753 73.495319 l
298.510664 72.465315 l
300.641094 71.349727 l
303.011398 70.18614 l
305.648245 69.045534 l
308.581974 68.022473 l
311.845786 67.188654 l
315.476824 66.527082 l
319.516586 65.914346 l
324.01079 65.193762 l
328.969231 64.265263 l
334.152443 63.15554 l
339.335656 61.959861 l
344.519004 60.74533 l
349.702216 59.550849 l
354.885429 58.394922 l
360.068641 57.278831 l
365.39322 56.190223 l
370.50677 55.183536 l
374.961108 54.317459 l
378.842905 53.577029 l
382.225361 52.940402 l
385.171063 52.390807 l
387.738519 51.914958 l
389.973988 51.501349 l
391.922369 51.138062 l
393.6204 50.813701 l
395.099374 50.514135 l
396.387864 50.250828 l
397.510361 50.112 l
398.487273 50.160996 l
stroke
grestore
1 0.498 0.055 setrgbcolor
gsave
57.6 38.016 357.12 266.112 rectclip
73.832727 238.76266 m
74.955224 255.690395 l
76.243714 264.911953 l
77.722688 270.790337 l
79.420719 274.471061 l
81.3691 276.636403 l
83.60593 277.920766 l
86.172025 278.735911 l
89.117727 279.297297 l
92.500183 279.705468 l
96.38198 280.009501 l
100.836046 280.22017 l
105.948915 280.31952 l
111.273086 280.265656 l
116.456298 280.021471 l
121.639511 279.528314 l
126.822723 278.696411 l
132.006072 277.394093 l
137.189284 275.433435 l
142.372496 272.563069 l
147.330937 268.621404 l
151.825141 263.604848 l
155.864904 257.550507 l
159.495942 250.570898 l
162.759753 242.880282 l
165.693483 234.768327 l
168.330329 226.551038 l
170.700497 218.508508 l
172.831063 210.854998 l
174.745974 203.734146 l
176.467272 197.224951 l
178.014412 191.354946 l
179.405083 186.122933 l
180.655068 181.162635 l
182.267245 175.318963 l
184.308147 168.457736 l
186.34905 161.543722 l
188.389953 154.892925 l
190.430855 148.496008 l
192.471758 142.313111 l
194.512661 136.310959 l
196.553563 130.468125 l
198.594466 124.769408 l
200.635368 119.317509 l
202.473133 114.401021 l
204.191709 109.859667 l
206.0873 105.133977 l
208.177864 100.13346 l
210.483676 94.831663 l
212.394369 90.606552 l
213.728167 87.776405 l
215.831657 83.573319 l
218.780353 78.049601 l
221.595166 73.286565 l
224.143111 69.421507 l
225.990985 66.889887 l
227.086732 65.493487 l
228.537011 63.783118 l
230.426628 61.810621 l
232.137027 60.294379 l
233.856733 59.029287 l
235.670864 57.974218 l
237.484995 57.185814 l
239.209326 56.680411 l
240.92797 56.425059 l
242.823506 56.436861 l
244.265731 56.629432 l
245.362199 56.882785 l
247.219923 57.482091 l
249.763024 58.673711 l
252.567905 60.528999 l
255.516465 63.158891 l
257.620227 65.382168 l
258.957563 66.989476 l
260.879277 69.538931 l
263.185633 73.003479 l
265.273204 76.553731 l
267.162808 80.11284 l
268.87322 83.697925 l
270.706359 87.771138 l
272.747262 92.513705 l
274.788164 97.676174 l
276.829067 103.155723 l
278.869969 108.92602 l
280.910872 114.957498 l
282.951775 121.223226 l
284.992677 127.703573 l
287.03358 134.391118 l
289.074483 141.007921 l
290.68666 146.639487 l
291.936644 151.365775 l
293.327315 156.294712 l
294.874456 161.825851 l
296.595753 168.062851 l
298.510664 175.137022 l
300.641094 183.208279 l
303.011398 192.462156 l
305.648245 203.054259 l
308.581974 215.000151 l
311.845786 228.024524 l
315.476824 241.467842 l
319.516586 254.348577 l
324.01079 265.664856 l
328.969231 274.69729 l
334.152443 281.143044 l
339.335656 285.383956 l
344.519004 288.114274 l
349.702216 289.86187 l
354.885429 290.957109 l
360.068641 291.609465 l
365.39322 291.94462 l
370.50677 292.032 l
374.961108 291.939832 l
378.842905 291.714799 l
382.225361 291.371265 l
385.171063 290.891275 l
387.738519 290.223358 l
389.973988 289.24662 l
391.922369 287.715679 l
393.6204 285.151741 l
395.099374 280.718115 l
396.387864 272.819224 l
397.510361 256.75571 l
398.487273 164.212396 l
stroke
grestore
0.173 0.627 0.173 setrgbcolor
gsave
57.6 38.016 357.12 266.112 rectclip
73.832727 50.345546 m
74.955224 50.345546 l
76.243714 50.345546 l
77.722688 50.345546 l
79.420719 50.345546 l
81.3691 50.345546 l
83.60593 50.345546 l
86.172025 50.345546 l
89.117727 50.345546 l
92.500183 50.345546 l
96.38198 50.345546 l
100.836046 50.345546 l
105.948915 50.345546 l
111.273086 50.345546 l
116.456298 50.345546 l
121.639511 50.345546 l
126.822723 50.345546 l
132.006072 50.345546 l
137.189284 50.345546 l
142.372496 50.345546 l
147.330937 50.345546 l
151.825141 50.345546 l
155.864904 50.345546 l
159.495942 50.345546 l
162.759753 50.345546 l
165.693483 50.345546 l
168.330329 50.345546 l
170.700497 50.345546 l
172.831063 50.345546 l
174.745974 50.345546 l
176.467272 50.345546 l
178.014412 50.345546 l
179.405083 50.345546 l
180.655068 50.345546 l
182.267245 50.345546 l
184.308147 50.345546 l
186.34905 50.345546 l
188.389953 50.345546 l
190.430855 50.345546 l
192.471758 50.345546 l
194.512661 50.345546 l
196.553563 50.345546 l
198.594466 50.345546 l
200.635368 50.345546 l
202.473133 50.345546 l
204.191709 50.345546 l
206.0873 50.345546 l
208.177864 50.345546 l
210.483676 50.345546 l
212.394369 50.345546 l
213.728167 50.345546 l
215.831657 50.345546 l
218.780353 50.345546 l
221.595166 50.345546 l
224.143111 50.345546 l
225.990985 50.345546 l
227.086732 50.345546 l
228.537011 50.345546 l
230.426628 50.345546 l
232.137027 50.345546 l
233.856733 50.345546 l
235.670864 50.345546 l
237.484995 50.345546 l
239.209326 50.345546 l
240.92797 50.345546 l
242.823506 50.345546 l
244.265731 50.345546 l
245.362199 50.345546 l
247.219923 50.345546 l
249.763024 50.345546 l
252.567905 50.345546 l
255.516465 50.345546 l
257.620227 50.345546 l
258.957563 50.345546 l
260.879277 50.345546 l
263.185633 50.345546 l
265.273204 50.345546 l
267.162808 50.345546 l
268.87322 50.345546 l
270.706359 50.345546 l
272.747262 50.345546 l
274.788164 50.345546 l
276.829067 50.345546 l
278.869969 50.345546 l
280.910872 50.345546 l
282.951775 50.345546 l
284.992677 50.345546 l
287.03358 50.345546 l
289.074483 50.345546 l
290.68666 50.345546 l
291.936644 50.345546 l
293.327315 50.345546 l
294.874456 50.345546 l
296.595753 50.345546 l
298.510664 50.345546 l
300.641094 50.345546 l
303.011398 50.345546 l
305.648245 50.345546 l
308.581974 50.345546 l
311.845786 50.345546 l
315.476824 50.345546 l
319.516586 50.345546 l
324.01079 50.345546 l
328.969231 50.345546 l
334.152443 50.345546 l
339.335656 50.345546 l
344.519004 50.345546 l
349.702216 50.345546 l
354.885429 50.345546 l
360.068641 50.345546 l
365.39322 50.345546 l
370.50677 50.345546 l
374.961108 50.345546 l
378.842905 50.345546 l
382.225361 50.345546 l
385.171063 50.345546 l
387.738519 50.345546 l
389.973988 50.345546 l
391.922369 50.345546 l
393.6204 50.345546 l
395.099374 50.345546 l
396.387864 50.345546 l
397.510361 50.345546 l
398.487273 50.345546 l
stroke
grestore