%!PS-Adobe-3.0 EPSF-3.0
%%LanguageLevel: 3
%%Title: line110mm_0.42.eps
%%Creator: Matplotlib v3.10.0, https://matplotlib.org/
%%CreationDate: Mon Feb 17 10:46:15 2025
%%Orientation: portrait
%%BoundingBox: 0 0 461 346
%%HiResBoundingBox: 0.000000 0.000000 460.800000 345.600000
%%EndComments
%%BeginProlog
/mpldict 9 dict def
mpldict begin
/_d { bind def } bind def
/m { moveto } _d
/l { lineto } _d
/r { rlineto } _d
/c { curveto } _d
/cl { closepath } _d
/ce { closepath eofill } _d
/sc { setcachedevice } _d
%!PS-Adobe-3.0 Resource-Font
%%Creator: Converted from TrueType to Type 3 by Matplotlib.
10 dict begin
/FontName /DejaVuSans def
/PaintType 0 def
/FontMatrix [0.00048828125 0 0 0.00048828125 0 0] def
/FontBBox [-2090 -948 3673 2524] def
/FontType 3 def
/Encoding [/minus /space /parenleft /parenright /period /slash /zero /one /two /four /five /at /P /U /V /bracketleft /bracketright /underscore /c /e /f /i /l /m /n /o /r /s /t /x /y /z] def
/CharStrings 33 dict dup begin
/.notdef 0 def
/minus{1716 0 217 557 1499 727 sc
217 727 m
1499 727 l
1499 557 l
217 557 l
217 727 l

ce} _d
/space{651 0 0 0 0 0 sc
ce} _d
/parenleft{799 0 176 -270 635 1554 sc
635 1554 m
546 1401 479 1249 436 1099 c
393 949 371 797 371 643 c
371 489 393 336 436 185 c
480 34 546 -117 635 -270 c
475 -270 l
375 -113 300 41 250 192 c
201 343 176 494 176 643 c
176 792 201 941 250 1092 c
299 1243 374 1397 475 1554 c
635 1554 l

ce} _d
/parenright{799 0 164 -270 623 1554 sc
164 1554 m
324 1554 l
424 1397 499 1243 548 1092 c
598 941 623 792 623 643 c
623 494 598 343 548 192 c
499 41 424 -113 324 -270 c
164 -270 l
253 -117 319 34 362 185 c
406 336 428 489 428 643 c
428 797 406 949 362 1099 c
319 1249 253 1401 164 1554 c

ce} _d
/period{651 0 219 0 430 254 sc
219 254 m
430 254 l
430 0 l
219 0 l
219 254 l

ce} _d
/slash{690 0 0 -190 690 1493 sc
520 1493 m
690 1493 l
170 -190 l
0 -190 l
520 1493 l

ce} _d
/zero{1303 0 135 -29 1167 1520 sc
651 1360 m
547 1360 469 1309 416 1206 c
364 1104 338 950 338 745 c
338 540 364 387 416 284 c
469 182 547 131 651 131 c
756 131 834 182 886 284 c
939 387 965 540 965 745 c
965 950 939 1104 886 1206 c
834 1309 756 1360 651 1360 c

651 1520 m
818 1520 946 1454 1034 1321 c
1123 1189 1167 997 1167 745 c
1167 494 1123 302 1034 169 c
946 37 818 -29 651 -29 c
484 -29 356 37 267 169 c
179 302 135 494 135 745 c
135 997 179 1189 267 1321 c
356 1454 484 1520 651 1520 c

ce} _d
/one{1303 0 225 0 1114 1493 sc
254 170 m
584 170 l
584 1309 l
225 1237 l
225 1421 l
582 1493 l
784 1493 l
784 170 l
1114 170 l
1114 0 l
254 0 l
254 170 l

ce} _d
/two{1303 0 150 0 1098 1520 sc
393 170 m
1098 170 l
1098 0 l
150 0 l
150 170 l
227 249 331 356 463 489 c
596 623 679 709 713 748 c
778 821 823 882 848 932 c
874 983 887 1032 887 1081 c
887 1160 859 1225 803 1275 c
748 1325 675 1350 586 1350 c
523 1350 456 1339 385 1317 c
315 1295 240 1262 160 1217 c
160 1421 l
241 1454 317 1478 388 1495 c
459 1512 523 1520 582 1520 c
737 1520 860 1481 952 1404 c
1044 1327 1090 1223 1090 1094 c
1090 1033 1078 974 1055 919 c
1032 864 991 800 930 725 c
913 706 860 650 771 557 c
682 465 556 336 393 170 c

ce} _d
/four{1303 0 100 0 1188 1493 sc
774 1317 m
264 520 l
774 520 l
774 1317 l

721 1493 m
975 1493 l
975 520 l
1188 520 l
1188 352 l
975 352 l
975 0 l
774 0 l
774 352 l
100 352 l
100 547 l
721 1493 l

ce} _d
/five{1303 0 158 -29 1124 1493 sc
221 1493 m
1014 1493 l
1014 1323 l
406 1323 l
406 957 l
435 967 465 974 494 979 c
523 984 553 987 582 987 c
749 987 881 941 978 850 c
1075 759 1124 635 1124 479 c
1124 318 1074 193 974 104 c
874 15 733 -29 551 -29 c
488 -29 424 -24 359 -13 c
294 -2 227 14 158 35 c
158 238 l
218 205 280 181 344 165 c
408 149 476 141 547 141 c
662 141 754 171 821 232 c
888 293 922 375 922 479 c
922 583 888 665 821 726 c
754 787 662 817 547 817 c
493 817 439 811 385 799 c
332 787 277 768 221 743 c
221 1493 l

ce} _d
/at{2048 0 135 -356 1905 1442 sc
762 537 m
762 442 786 367 833 312 c
880 258 945 231 1028 231 c
1110 231 1174 258 1221 313 c
1268 368 1292 442 1292 537 c
1292 630 1268 704 1220 759 c
1172 814 1107 842 1026 842 c
945 842 881 815 833 760 c
786 705 762 631 762 537 c

1307 238 m
1267 187 1221 149 1169 124 c
1118 100 1058 88 989 88 c
874 88 781 129 709 212 c
638 295 602 404 602 537 c
602 670 638 779 710 862 c
782 945 875 987 989 987 c
1058 987 1118 974 1170 949 c
1222 924 1268 887 1307 836 c
1307 967 l
1450 967 l
1450 231 l
1547 246 1623 290 1678 364 c
1733 439 1761 535 1761 653 c
1761 724 1750 791 1729 854 c
1708 917 1677 975 1634 1028 c
1565 1115 1480 1182 1380 1228 c
1281 1275 1172 1298 1055 1298 c
973 1298 894 1287 819 1265 c
744 1244 674 1212 610 1169 c
505 1101 423 1012 364 901 c
305 791 276 672 276 543 c
276 437 295 338 333 245 c
372 152 427 71 500 0 c
570 -69 651 -122 743 -158 c
835 -195 933 -213 1038 -213 c
1124 -213 1208 -198 1291 -169 c
1374 -140 1451 -99 1520 -45 c
1610 -156 l
1527 -221 1436 -270 1337 -304 c
1239 -339 1139 -356 1038 -356 c
915 -356 798 -334 689 -290 c
580 -247 482 -183 397 -100 c
312 -17 247 80 202 189 c
157 299 135 417 135 543 c
135 664 158 780 203 890 c
248 1000 313 1097 397 1180 c
483 1265 582 1329 695 1374 c
808 1419 927 1442 1053 1442 c
1194 1442 1325 1413 1446 1355 c
1567 1297 1669 1215 1751 1108 c
1801 1043 1839 972 1865 895 c
1892 818 1905 739 1905 657 c
1905 482 1852 343 1746 242 c
1640 141 1494 88 1307 84 c
1307 238 l

ce} _d
/P{1235 0 201 0 1165 1493 sc
403 1327 m
403 766 l
657 766 l
751 766 824 790 875 839 c
926 888 952 957 952 1047 c
952 1136 926 1205 875 1254 c
824 1303 751 1327 657 1327 c
403 1327 l

201 1493 m
657 1493 l
824 1493 951 1455 1036 1379 c
1122 1304 1165 1193 1165 1047 c
1165 900 1122 788 1036 713 c
951 638 824 600 657 600 c
403 600 l
403 0 l
201 0 l
201 1493 l

ce} _d
/U{1499 0 178 -29 1321 1493 sc
178 1493 m
381 1493 l
381 586 l
381 426 410 311 468 240 c
526 170 620 135 750 135 c
879 135 973 170 1031 240 c
1089 311 1118 426 1118 586 c
1118 1493 l
1321 1493 l
1321 561 l
1321 366 1273 219 1176 120 c
1080 21 938 -29 750 -29 c
561 -29 419 21 322 120 c
226 219 178 366 178 561 c
178 1493 l

ce} _d
/V{1401 0 16 0 1384 1493 sc
586 0 m
16 1493 l
227 1493 l
700 236 l
1174 1493 l
1384 1493 l
815 0 l
586 0 l

ce} _d
/bracketleft{799 0 176 -270 600 1556 sc
176 1556 m
600 1556 l
600 1413 l
360 1413 l
360 -127 l
600 -127 l
600 -270 l
176 -270 l
176 1556 l

ce} _d
/bracketright{799 0 199 -270 623 1556 sc
623 1556 m
623 -270 l
199 -270 l
199 -127 l
438 -127 l
438 1413 l
199 1413 l
199 1556 l
623 1556 l

ce} _d
/underscore{1024 0 -20 -483 1044 -340 sc
1044 -340 m
1044 -483 l
-20 -483 l
-20 -340 l
1044 -340 l

ce} _d
/c{1126 0 113 -29 999 1147 sc
999 1077 m
999 905 l
947 934 895 955 842 969 c
790 984 737 991 684 991 c
565 991 472 953 406 877 c
340 802 307 696 307 559 c
307 422 340 316 406 240 c
472 165 565 127 684 127 c
737 127 790 134 842 148 c
895 163 947 184 999 213 c
999 43 l
948 19 894 1 839 -11 c
784 -23 726 -29 664 -29 c
495 -29 361 24 262 130 c
163 236 113 379 113 559 c
113 742 163 885 263 990 c
364 1095 501 1147 676 1147 c
733 1147 788 1141 842 1129 c
896 1118 948 1100 999 1077 c

ce} _d
/e{1260 0 113 -29 1151 1147 sc
1151 606 m
1151 516 l
305 516 l
313 389 351 293 419 226 c
488 160 583 127 705 127 c
776 127 844 136 910 153 c
977 170 1043 196 1108 231 c
1108 57 l
1042 29 974 8 905 -7 c
836 -22 765 -29 694 -29 c
515 -29 374 23 269 127 c
165 231 113 372 113 549 c
113 732 162 878 261 985 c
360 1093 494 1147 662 1147 c
813 1147 932 1098 1019 1001 c
1107 904 1151 773 1151 606 c

967 660 m
966 761 937 841 882 901 c
827 961 755 991 664 991 c
561 991 479 962 417 904 c
356 846 320 764 311 659 c
967 660 l

ce} _d
/f{721 0 47 0 760 1556 sc
760 1556 m
760 1403 l
584 1403 l
518 1403 472 1390 446 1363 c
421 1336 408 1288 408 1219 c
408 1120 l
711 1120 l
711 977 l
408 977 l
408 0 l
223 0 l
223 977 l
47 977 l
47 1120 l
223 1120 l
223 1198 l
223 1323 252 1413 310 1470 c
368 1527 460 1556 586 1556 c
760 1556 l

ce} _d
/i{569 0 193 0 377 1556 sc
193 1120 m
377 1120 l
377 0 l
193 0 l
193 1120 l

193 1556 m
377 1556 l
377 1323 l
193 1323 l
193 1556 l

ce} _d
/l{569 0 193 0 377 1556 sc
193 1556 m
377 1556 l
377 0 l
193 0 l
193 1556 l

ce} _d
/m{1995 0 186 0 1821 1147 sc
1065 905 m
1111 988 1166 1049 1230 1088 c
1294 1127 1369 1147 1456 1147 c
1573 1147 1663 1106 1726 1024 c
1789 943 1821 827 1821 676 c
1821 0 l
1636 0 l
1636 670 l
1636 777 1617 857 1579 909 c
1541 961 1483 987 1405 987 c
1310 987 1234 955 1179 892 c
1124 829 1096 742 1096 633 c
1096 0 l
911 0 l
911 670 l
911 778 892 858 854 909 c
816 961 757 987 678 987 c
584 987 509 955 454 891 c
399 828 371 742 371 633 c
371 0 l
186 0 l
186 1120 l
371 1120 l
371 946 l
413 1015 463 1065 522 1098 c
581 1131 650 1147 731 1147 c
812 1147 881 1126 938 1085 c
995 1044 1038 984 1065 905 c

ce} _d
/n{1298 0 186 0 1124 1147 sc
1124 676 m
1124 0 l
940 0 l
940 670 l
940 776 919 855 878 908 c
837 961 775 987 692 987 c
593 987 514 955 457 892 c
400 829 371 742 371 633 c
371 0 l
186 0 l
186 1120 l
371 1120 l
371 946 l
415 1013 467 1064 526 1097 c
586 1130 655 1147 733 1147 c
862 1147 959 1107 1025 1027 c
1091 948 1124 831 1124 676 c

ce} _d
/o{1253 0 113 -29 1141 1147 sc
627 991 m
528 991 450 952 393 875 c
336 798 307 693 307 559 c
307 425 335 319 392 242 c
449 165 528 127 627 127 c
725 127 803 166 860 243 c
917 320 946 426 946 559 c
946 692 917 797 860 874 c
803 952 725 991 627 991 c

627 1147 m
787 1147 913 1095 1004 991 c
1095 887 1141 743 1141 559 c
1141 376 1095 232 1004 127 c
913 23 787 -29 627 -29 c
466 -29 340 23 249 127 c
158 232 113 376 113 559 c
113 743 158 887 249 991 c
340 1095 466 1147 627 1147 c

ce} _d
/r{842 0 186 0 842 1147 sc
842 948 m
821 960 799 969 774 974 c
750 980 723 983 694 983 c
590 983 510 949 454 881 c
399 814 371 717 371 590 c
371 0 l
186 0 l
186 1120 l
371 1120 l
371 946 l
410 1014 460 1064 522 1097 c
584 1130 659 1147 748 1147 c
761 1147 775 1146 790 1144 c
805 1143 822 1140 841 1137 c
842 948 l

ce} _d
/s{1067 0 111 -29 967 1147 sc
907 1087 m
907 913 l
855 940 801 960 745 973 c
689 986 631 993 571 993 c
480 993 411 979 365 951 c
320 923 297 881 297 825 c
297 782 313 749 346 724 c
379 700 444 677 543 655 c
606 641 l
737 613 829 573 884 522 c
939 471 967 400 967 309 c
967 205 926 123 843 62 c
761 1 648 -29 504 -29 c
444 -29 381 -23 316 -11 c
251 0 183 18 111 41 c
111 231 l
179 196 246 169 312 151 c
378 134 443 125 508 125 c
595 125 661 140 708 169 c
755 199 778 241 778 295 c
778 345 761 383 727 410 c
694 437 620 462 506 487 c
442 502 l
328 526 246 563 195 612 c
144 662 119 730 119 817 c
119 922 156 1004 231 1061 c
306 1118 412 1147 549 1147 c
617 1147 681 1142 741 1132 c
801 1122 856 1107 907 1087 c

ce} _d
/t{803 0 55 0 754 1438 sc
375 1438 m
375 1120 l
754 1120 l
754 977 l
375 977 l
375 369 l
375 278 387 219 412 193 c
437 167 488 154 565 154 c
754 154 l
754 0 l
565 0 l
423 0 325 26 271 79 c
217 132 190 229 190 369 c
190 977 l
55 977 l
55 1120 l
190 1120 l
190 1438 l
375 1438 l

ce} _d
/x{1212 0 59 0 1145 1120 sc
1124 1120 m
719 575 l
1145 0 l
928 0 l
602 440 l
276 0 l
59 0 l
494 586 l
96 1120 l
313 1120 l
610 721 l
907 1120 l
1124 1120 l

ce} _d
/y{1212 0 61 -426 1151 1120 sc
659 -104 m
607 -237 556 -324 507 -365 c
458 -406 392 -426 309 -426 c
162 -426 l
162 -272 l
270 -272 l
321 -272 360 -260 388 -236 c
416 -212 447 -155 481 -66 c
514 18 l
61 1120 l
256 1120 l
606 244 l
956 1120 l
1151 1120 l
659 -104 l

ce} _d
/z{1075 0 88 0 987 1120 sc
113 1120 m
987 1120 l
987 952 l
295 147 l
987 147 l
987 0 l
88 0 l
88 168 l
780 973 l
113 973 l
113 1120 l

ce} _d
end readonly def

/BuildGlyph {
 exch begin
 CharStrings exch
 2 copy known not {pop /.notdef} if
 true 3 1 roll get exec
 end
} _d

/BuildChar {
 1 index /Encoding get exch get
 1 index /BuildGlyph get exec
} _d

FontName currentdict end definefont pop
end
%%EndProlog
mpldict begin
0 0 translate
0 0 460.8 345.6 rectclip
gsave
0 0 m
460.8 0 l
460.8 345.6 l
0 345.6 l
cl
1 setgray
fill
grestore
gsave
57.6 38.016 m
414.72 38.016 l
414.72 304.128 l
57.6 304.128 l
cl
1 setgray
fill
grestore
0.8 setlinewidth
1 setlinejoin
2 setlinecap
[] 0 setdash
0.69 setgray
gsave
57.6 38.016 357.12 266.112 rectclip
99.611941 38.016 m
99.611941 304.128 l
stroke
grestore
0 setlinecap
0 setgray
gsave
/o {
gsave
newpath
translate
0.8 setlinewidth
1 setlinejoin

0 setlinecap

0 0 m
0 -3.5 l

gsave
0 setgray
fill
grestore
stroke
grestore
} bind def
99.6119 38.016 o
grestore
/DejaVuSans 10.000 selectfont
gsave

84.2916 23.4222 translate
0 rotate
0 0 m /minus glyphshow
8.37891 0 m /zero glyphshow
14.7412 0 m /period glyphshow
17.9199 0 m /one glyphshow
24.2822 0 m /zero glyphshow
grestore
2 setlinecap
0.69 setgray
gsave
57.6 38.016 357.12 266.112 rectclip
167.641743 38.016 m
167.641743 304.128 l
stroke
grestore
0 setlinecap
0 setgray
gsave
/o {
gsave
newpath
translate
0.8 setlinewidth
1 setlinejoin

0 setlinecap

0 0 m
0 -3.5 l

gsave
0 setgray
fill
grestore
stroke
grestore
} bind def
167.642 38.016 o
grestore
/DejaVuSans 10.000 selectfont
gsave

152.321 23.4222 translate
0 rotate
0 0 m /minus glyphshow
8.37891 0 m /zero glyphshow
14.7412 0 m /period glyphshow
17.9199 0 m /zero glyphshow
24.2822 0 m /five glyphshow
grestore
2 setlinecap
0.69 setgray
gsave
57.6 38.016 357.12 266.112 rectclip
235.671546 38.016 m
235.671546 304.128 l
stroke
grestore
0 setlinecap
0 setgray
gsave
/o {
gsave
newpath
translate
0.8 setlinewidth
1 setlinejoin

0 setlinecap

0 0 m
0 -3.5 l

gsave
0 setgray
fill
grestore
stroke
grestore
} bind def
235.672 38.016 o
grestore
/DejaVuSans 10.000 selectfont
gsave

224.539 23.4222 translate
0 rotate
0 0 m /zero glyphshow
6.3623 0 m /period glyphshow
9.54102 0 m /zero glyphshow
15.9033 0 m /zero glyphshow
grestore
2 setlinecap
0.69 setgray
gsave
57.6 38.016 357.12 266.112 rectclip
303.701349 38.016 m
303.701349 304.128 l
stroke
grestore
0 setlinecap
0 setgray
gsave
/o {
gsave
newpath
translate
0.8 setlinewidth
1 setlinejoin

0 setlinecap

0 0 m
0 -3.5 l

gsave
0 setgray
fill
grestore
stroke
grestore
} bind def
303.701 38.016 o
grestore
/DejaVuSans 10.000 selectfont
gsave

292.569 23.4222 translate
0 rotate
0 0 m /zero glyphshow
6.3623 0 m /period glyphshow
9.54102 0 m /zero glyphshow
15.9033 0 m /five glyphshow
grestore
2 setlinecap
0.69 setgray
gsave
57.6 38.016 357.12 266.112 rectclip
371.731151 38.016 m
371.731151 304.128 l
stroke
grestore
0 setlinecap
0 setgray
gsave
/o {
gsave
newpath
translate
0.8 setlinewidth
1 setlinejoin

0 setlinecap

0 0 m
0 -3.5 l

gsave
0 setgray
fill
grestore
stroke
grestore
} bind def
371.731 38.016 o
grestore
/DejaVuSans 10.000 selectfont
gsave

360.598 23.4222 translate
0 rotate
0 0 m /zero glyphshow
6.3623 0 m /period glyphshow
9.54102 0 m /one glyphshow
15.9033 0 m /zero glyphshow
grestore
/DejaVuSans 10.000 selectfont
gsave

222.824 9.75037 translate
0 rotate
0 0 m /x glyphshow
5.91797 0 m /space glyphshow
9.09668 0 m /bracketleft glyphshow
12.998 0 m /m glyphshow
22.7393 0 m /bracketright glyphshow
grestore
2 setlinecap
0.69 setgray
gsave
57.6 38.016 357.12 266.112 rectclip
57.6 60.84704 m
414.72 60.84704 l
stroke
grestore
0 setlinecap
0 setgray
gsave
/o {
gsave
newpath
translate
0.8 setlinewidth
1 setlinejoin

0 setlinecap

-0 0 m
-3.5 0 l

gsave
0 setgray
fill
grestore
stroke
grestore
} bind def
57.6 60.847 o
grestore
/DejaVuSans 10.000 selectfont
gsave

44.2406 57.0502 translate
0 rotate
0 0 m /zero glyphshow
grestore
2 setlinecap
0.69 setgray
gsave
57.6 38.016 357.12 266.112 rectclip
57.6 117.665436 m
414.72 117.665436 l
stroke
grestore
0 setlinecap
0 setgray
gsave
/o {
gsave
newpath
translate
0.8 setlinewidth
1 setlinejoin

0 setlinecap

-0 0 m
-3.5 0 l

gsave
0 setgray
fill
grestore
stroke
grestore
} bind def
57.6 117.665 o
grestore
/DejaVuSans 10.000 selectfont
gsave

44.2406 113.869 translate
0 rotate
0 0 m /five glyphshow
grestore
2 setlinecap
0.69 setgray
gsave
57.6 38.016 357.12 266.112 rectclip
57.6 174.483831 m
414.72 174.483831 l
stroke
grestore
0 setlinecap
0 setgray
gsave
/o {
gsave
newpath
translate
0.8 setlinewidth
1 setlinejoin

0 setlinecap

-0 0 m
-3.5 0 l

gsave
0 setgray
fill
grestore
stroke
grestore
} bind def
57.6 174.484 o
grestore
/DejaVuSans 10.000 selectfont
gsave

37.8813 170.687 translate
0 rotate
0 0 m /one glyphshow
6.3623 0 m /zero glyphshow
grestore
2 setlinecap
0.69 setgray
gsave
57.6 38.016 357.12 266.112 rectclip
57.6 231.302226 m
414.72 231.302226 l
stroke
grestore
0 setlinecap
0 setgray
gsave
/o {
gsave
newpath
translate
0.8 setlinewidth
1 setlinejoin

0 setlinecap

-0 0 m
-3.5 0 l

gsave
0 setgray
fill
grestore
stroke
grestore
} bind def
57.6 231.302 o
grestore
/DejaVuSans 10.000 selectfont
gsave

37.8813 227.505 translate
0 rotate
0 0 m /one glyphshow
6.3623 0 m /five glyphshow
grestore
2 setlinecap
0.69 setgray
gsave
57.6 38.016 357.12 266.112 rectclip
57.6 288.120622 m
414.72 288.120622 l
stroke
grestore
0 setlinecap
0 setgray
gsave
/o {
gsave
newpath
translate
0.8 setlinewidth
1 setlinejoin

0 setlinecap

-0 0 m
-3.5 0 l

gsave
0 setgray
fill
grestore
stroke
grestore
} bind def
57.6 288.121 o
grestore
/DejaVuSans 10.000 selectfont
gsave

37.8813 284.324 translate
0 rotate
0 0 m /two glyphshow
6.3623 0 m /zero glyphshow
grestore
1.5 setlinewidth
2 setlinecap
0.122 0.467 0.706 setrgbcolor
gsave
57.6 38.016 357.12 266.112 rectclip
73.832727 60.908163 m
74.95658 60.808552 l
76.245064 60.707683 l
77.724032 60.586327 l
79.420695 60.437766 l
81.369069 60.268936 l
83.605889 60.079451 l
86.173333 59.868823 l
89.119024 59.638422 l
92.500105 59.392546 l
96.381886 59.140409 l
100.837157 58.89934 l
105.950141 58.701453 l
111.27429 58.596805 l
116.457344 58.617657 l
121.640671 58.783658 l
126.823862 59.118693 l
132.007188 59.652184 l
137.190379 60.420583 l
142.373434 61.457577 l
147.33199 62.749457 l
151.826175 64.232383 l
155.865785 65.836514 l
159.496943 67.474418 l
162.760741 69.04406 l
165.694322 70.454281 l
168.331293 71.65182 l
170.701452 72.630153 l
172.832009 73.41686 l
174.746912 74.055499 l
176.468202 74.589024 l
178.015336 75.05073 l
179.406001 75.4638 l
180.655981 75.870506 l
182.268151 76.390735 l
184.309045 77.083124 l
186.349939 77.911309 l
188.390833 78.877222 l
190.431727 79.996658 l
192.472621 81.273708 l
194.513515 82.698941 l
196.554409 84.25531 l
198.595304 85.896225 l
200.636198 87.539527 l
202.473819 89.13351 l
204.192524 90.673062 l
206.088106 92.259886 l
208.178662 94.06387 l
209.928661 95.48933 l
211.137958 96.392969 l
213.027554 97.66252 l
215.832423 99.27798 l
218.781107 100.708781 l
220.67356 101.369693 l
222.01089 101.762649 l
224.143842 102.234923 l
226.450147 102.517992 l
228.537723 102.53447 l
230.427333 102.408333 l
231.744621 102.307878 l
232.55725 102.196287 l
233.857422 101.941172 l
235.671546 101.463557 l
237.48567 101.005032 l
238.78595 100.609235 l
239.603206 100.310711 l
240.928631 99.79605 l
242.824159 99.113093 l
244.914769 98.38775 l
247.220557 97.277518 l
249.341863 96.253423 l
250.675655 95.640921 l
252.568516 94.840577 l
255.517064 93.61205 l
258.332001 91.995794 l
260.214522 90.95579 l
261.42518 90.292946 l
263.1862 89.344193 l
265.273762 88.233848 l
267.163358 87.02623 l
268.873763 85.695088 l
270.706894 84.55997 l
272.747788 83.367466 l
274.788683 82.082916 l
276.829577 80.773933 l
278.870471 79.484951 l
280.911365 78.223469 l
282.952259 77.002101 l
284.993153 75.841642 l
287.034047 74.769934 l
289.074941 73.855612 l
290.687111 73.20845 l
291.937091 72.756517 l
293.327756 72.36197 l
294.87489 71.97665 l
296.59618 71.545217 l
298.511083 70.97326 l
300.641504 70.178189 l
303.011799 69.164038 l
305.648634 68.055874 l
308.582351 67.051643 l
311.846149 66.319038 l
315.477171 65.918548 l
319.516917 65.77615 l
324.011102 65.744536 l
328.969522 65.696786 l
334.152713 65.577694 l
339.335904 65.385648 l
344.51923 65.132568 l
349.702421 64.831635 l
354.885612 64.488281 l
360.068802 64.106439 l
365.393359 63.685312 l
370.506887 63.25389 l
374.961206 62.851571 l
378.842987 62.485262 l
382.225429 62.155023 l
385.171119 61.860017 l
387.738564 61.598978 l
389.974023 61.370642 l
391.922397 61.174117 l
393.620421 61.010661 l
395.099389 60.888656 l
396.387873 60.79926 l
397.510365 60.726064 l
398.487273 60.810798 l
stroke
grestore
1 0.498 0.055 setrgbcolor
gsave
57.6 38.016 357.12 266.112 rectclip
73.832727 245.344325 m
74.95658 255.926183 l
76.245064 263.400074 l
77.724032 268.406911 l
79.420695 271.375104 l
81.369069 273.071701 l
83.605889 274.108069 l
86.173333 274.810344 l
89.119024 275.325119 l
92.500105 275.719439 l
96.381886 276.01944 l
100.837157 276.220577 l
105.950141 276.291032 l
111.27429 276.183077 l
116.457344 275.854666 l
121.640671 275.241028 l
126.823862 274.243297 l
132.007188 272.714882 l
137.190379 270.435328 l
142.373434 267.078497 l
147.33199 262.358025 l
151.826175 256.128456 l
155.865785 248.265926 l
159.496943 238.793164 l
162.760741 227.998805 l
165.694322 216.407852 l
168.331293 204.641899 l
170.701452 193.261174 l
172.832009 182.662271 l
174.746912 173.060076 l
176.468202 164.537316 l
178.015336 157.101948 l
179.406001 150.705901 l
180.655981 144.895879 l
182.268151 138.401309 l
184.309045 131.330373 l
186.349939 124.862508 l
188.390833 119.269646 l
190.431727 114.415537 l
192.472621 110.133703 l
194.513515 106.267779 l
196.554409 102.677879 l
198.595304 99.249912 l
200.636198 95.985127 l
202.473819 92.963979 l
204.192524 90.020559 l
206.088106 86.892706 l
208.178662 83.561898 l
209.928661 80.700638 l
211.137958 78.721198 l
213.027554 75.651528 l
215.832423 71.167352 l
218.781107 66.860154 l
220.67356 64.23611 l
222.01089 62.407103 l
224.143842 59.653809 l
226.450147 56.973412 l
228.537723 54.98145 l
230.427333 53.425922 l
231.744621 52.479498 l
232.55725 51.946871 l
233.857422 51.271868 l
235.671546 50.567774 l
237.48567 50.181978 l
238.78595 50.112 l
239.603206 50.154432 l
240.928631 50.371615 l
242.824159 51.001299 l
244.914769 52.170985 l
247.220557 54.334039 l
249.341863 57.114219 l
250.675655 59.154364 l
252.568516 62.502342 l
255.517064 68.979003 l
258.332001 77.200056 l
260.214522 83.415193 l
261.42518 87.741914 l
263.1862 94.401485 l
265.273762 102.765266 l
267.163358 110.449272 l
268.873763 117.563617 l
270.706894 125.144668 l
272.747788 133.394927 l
274.788683 141.763594 l
276.829577 150.127262 l
278.870471 158.531953 l
280.911365 167.024485 l
282.952259 175.636108 l
284.993153 184.372505 l
287.034047 193.208901 l
289.074941 201.68166 l
290.687111 208.488504 l
291.937091 213.712388 l
293.327756 218.398769 l
294.87489 222.505602 l
296.59618 225.679478 l
298.511083 228.030623 l
300.641504 230.377223 l
303.011799 234.029509 l
305.648634 240.07385 l
308.582351 248.648882 l
311.846149 258.813693 l
315.477171 269.002368 l
319.516917 277.71831 l
324.011102 284.175152 l
328.969522 288.356986 l
334.152713 290.672904 l
339.335904 291.72859 l
344.51923 292.032 l
349.702421 291.86609 l
354.885612 291.439952 l
360.068802 290.859268 l
365.393359 290.181993 l
370.506887 289.487672 l
374.961206 288.83767 l
378.842987 288.225168 l
382.225429 287.612665 l
385.171119 286.950163 l
387.738564 286.154705 l
389.974023 285.074019 l
391.922397 283.393331 l
393.620421 280.504684 l
395.099389 275.564893 l
396.387873 268.013728 l
397.510365 257.108005 l
398.487273 173.73951 l
stroke
grestore
0.173 0.627 0.173 setrgbcolor
gsave
57.6 38.016 357.12 266.112 rectclip
73.832727 60.84704 m
74.95658 60.84704 l
76.245064 60.84704 l
77.724032 60.84704 l
79.420695 60.84704 l
81.369069 60.84704 l
83.605889 60.84704 l
86.173333 60.84704 l
89.119024 60.84704 l
92.500105 60.84704 l
96.381886 60.84704 l
100.837157 60.84704 l
105.950141 60.84704 l
111.27429 60.84704 l
116.457344 60.84704 l
121.640671 60.84704 l
126.823862 60.84704 l
132.007188 60.84704 l
137.190379 60.84704 l
142.373434 60.84704 l
147.33199 60.84704 l
151.826175 60.84704 l
155.865785 60.84704 l
159.496943 60.84704 l
162.760741 60.84704 l
165.694322 60.84704 l
168.331293 60.84704 l
170.701452 60.84704 l
172.832009 60.84704 l
174.746912 60.84704 l
176.468202 60.84704 l
178.015336 60.84704 l
179.406001 60.84704 l
180.655981 60.84704 l
182.268151 60.84704 l
184.309045 60.84704 l
186.349939 60.84704 l
188.390833 60.84704 l
190.431727 60.84704 l
192.472621 60.84704 l
194.513515 60.84704 l
196.554409 60.84704 l
198.595304 60.84704 l
200.636198 60.84704 l
202.473819 60.84704 l
204.192524 60.84704 l
206.088106 60.84704 l
208.178662 60.84704 l
209.928661 60.84704 l
211.137958 60.84704 l
213.027554 60.84704 l
215.832423 60.84704 l
218.781107 60.84704 l
220.67356 60.84704 l
222.01089 60.84704 l
224.143842 60.84704 l
226.450147 60.84704 l
228.537723 60.84704 l
230.427333 60.84704 l
231.744621 60.84704 l
232.55725 60.84704 l
233.857422 60.84704 l
235.671546 60.84704 l
237.48567 60.84704 l
238.78595 60.84704 l
239.603206 60.84704 l
240.928631 60.84704 l
242.824159 60.84704 l
244.914769 60.84704 l
247.220557 60.84704 l
249.341863 60.84704 l
250.675655 60.84704 l
252.568516 60.84704 l
255.517064 60.84704 l
258.332001 60.84704 l
260.214522 60.84704 l
261.42518 60.84704 l
263.1862 60.84704 l
265.273762 60.84704 l
267.163358 60.84704 l
268.873763 60.84704 l
270.706894 60.84704 l
272.747788 60.84704 l
274.788683 60.84704 l
276.829577 60.84704 l
278.870471 60.84704 l
280.911365 60.84704 l
282.952259 60.84704 l
284.993153 60.84704 l
287.034047 60.84704 l
289.074941 60.84704 l
290.687111 60.84704 l
291.937091 60.84704 l
293.327756 60.84704 l
294.87489 60.84704 l
296.59618 60.84704 l
298.511083 60.84704 l
300.641504 60.84704 l
303.011799 60.84704 l
305.648634 60.84704 l
308.582351 60.84704 l
311.846149 60.84704 l
315.477171 60.84704 l
319.516917 60.84704 l
324.011102 60.84704 l
328.969522 60.84704 l
334.152713 60.84704 l
339.335904 60.84704 l
344.51923 60.84704 l
349.702421 60.84704 l
354.885612 60.84704 l
360.068802 60.84704 l
365.393359 60.84704 l
370.506887 60.84704 l
374.961206 60.84704 l
378.842987 60.84704 l
382.225429 60.84704 l
385.171119 60.84704 l
387.738564 60.84704 l
389.974023 60.84704 l
391.922397 60.84704 l
393.620421 60.84704 l
395.099389 60.84704 l
396.387873 60.84704 l
397.510365 60.84704 l
398.487273 60.84704 l
stroke
grestore
0.8 setlinewidth
0 setlinejoin
0 setgray
gsave
57.6 38.016 m
57.6 304.128 l
stroke
grestore
gsave
414.72 38.016 m
414.72 304.128 l
stroke
grestore
gsave
57.6 38.016 m
414.72 38.016 l
stroke
grestore
gsave
57.6 304.128 m
414.72 304.128 l
stroke
grestore
/DejaVuSans 12.000 selectfont
gsave

130.894 310.128 translate
0 rotate
0 0 m /V glyphshow
7.33398 0 m /e glyphshow
14.7168 0 m /l glyphshow
18.0508 0 m /o glyphshow
25.3926 0 m /c glyphshow
31.9902 0 m /i glyphshow
35.3242 0 m /t glyphshow
40.0293 0 m /y glyphshow
47.1309 0 m /P glyphshow
54.1172 0 m /r glyphshow
58.8008 0 m /o glyphshow
66.1426 0 m /f glyphshow
70.3672 0 m /i glyphshow
73.7012 0 m /l glyphshow
77.0352 0 m /e glyphshow
84.418 0 m /at glyphshow
96.418 0 m /zero glyphshow
104.053 0 m /period glyphshow
107.867 0 m /four glyphshow
115.502 0 m /two glyphshow
123.137 0 m /s glyphshow
129.389 0 m /space glyphshow
133.203 0 m /parenleft glyphshow
137.885 0 m /l glyphshow
141.219 0 m /i glyphshow
144.553 0 m /n glyphshow
152.158 0 m /e glyphshow
159.541 0 m /one glyphshow
167.176 0 m /one glyphshow
174.811 0 m /zero glyphshow
182.445 0 m /m glyphshow
194.135 0 m /m glyphshow
205.824 0 m /parenright glyphshow
grestore
1 setlinewidth
0 setlinecap
0.8 setgray
gsave
64.6 147.142312 m
144.19375 147.142312 l
145.527083 147.142312 146.19375 147.808979 146.19375 149.142312 c
146.19375 193.001687 l
146.19375 194.335021 145.527083 195.001687 144.19375 195.001687 c
64.6 195.001687 l
63.266667 195.001687 62.6 194.335021 62.6 193.001687 c
62.6 149.142312 l
62.6 147.808979 63.266667 147.142312 64.6 147.142312 c
cl
gsave
1 setgray
fill
grestore
stroke
grestore
1.5 setlinewidth
1 setlinejoin
2 setlinecap
0.122 0.467 0.706 setrgbcolor
gsave
66.6 186.907937 m
76.6 186.907937 l
86.6 186.907937 l
stroke
grestore
0 setgray
/DejaVuSans 10.000 selectfont
gsave

94.6 183.408 translate
0 rotate
0 0 m /U glyphshow
7.31934 0 m /underscore glyphshow
12.3193 0 m /x glyphshow
18.2373 0 m /space glyphshow
21.416 0 m /bracketleft glyphshow
25.3174 0 m /m glyphshow
35.0586 0 m /slash glyphshow
38.4277 0 m /s glyphshow
43.6377 0 m /bracketright glyphshow
grestore
1 0.498 0.055 setrgbcolor
gsave
66.6 171.954812 m
76.6 171.954812 l
86.6 171.954812 l
stroke
grestore
0 setgray
/DejaVuSans 10.000 selectfont
gsave

94.6 168.455 translate
0 rotate
0 0 m /U glyphshow
7.31934 0 m /underscore glyphshow
12.3193 0 m /y glyphshow
18.2373 0 m /space glyphshow
21.416 0 m /bracketleft glyphshow
25.3174 0 m /m glyphshow
35.0586 0 m /slash glyphshow
38.4277 0 m /s glyphshow
43.6377 0 m /bracketright glyphshow
grestore
0.173 0.627 0.173 setrgbcolor
gsave
66.6 157.001687 m
76.6 157.001687 l
86.6 157.001687 l
stroke
grestore
0 setgray
/DejaVuSans 10.000 selectfont
gsave

94.6 153.502 translate
0 rotate
0 0 m /U glyphshow
7.31934 0 m /underscore glyphshow
12.3193 0 m /z glyphshow
17.5684 0 m /space glyphshow
20.7471 0 m /bracketleft glyphshow
24.6484 0 m /m glyphshow
34.3896 0 m /slash glyphshow
37.7588 0 m /s glyphshow
42.9688 0 m /bracketright glyphshow
grestore

end
showpage
