%!PS-Adobe-3.0 EPSF-3.0
%%LanguageLevel: 3
%%Title: line140mm_0.18.eps
%%Creator: Matplotlib v3.10.0, https://matplotlib.org/
%%CreationDate: Mon Feb 17 10:46:14 2025
%%Orientation: portrait
%%BoundingBox: 0 0 461 346
%%HiResBoundingBox: 0.000000 0.000000 460.800000 345.600000
%%EndComments
%%BeginProlog
/mpldict 9 dict def
mpldict begin
/_d { bind def } bind def
/m { moveto } _d
/l { lineto } _d
/r { rlineto } _d
/c { curveto } _d
/cl { closepath } _d
/ce { closepath eofill } _d
/sc { setcachedevice } _d
%!PS-Adobe-3.0 Resource-Font
%%Creator: Converted from TrueType to Type 3 by Matplotlib.
10 dict begin
/FontName /DejaVuSans def
/PaintType 0 def
/FontMatrix [0.00048828125 0 0 0.00048828125 0 0] def
/FontBBox [-2090 -948 3673 2524] def
/FontType 3 def
/Encoding [/minus /space /parenleft /parenright /period /slash /zero /one /two /four /five /eight /at /P /U /V /bracketleft /bracketright /underscore /c /e /f /i /l /m /n /o /r /s /t /x /y /z] def
/CharStrings 34 dict dup begin
/.notdef 0 def
/minus{1716 0 217 557 1499 727 sc
217 727 m
1499 727 l
1499 557 l
217 557 l
217 727 l

ce} _d
/space{651 0 0 0 0 0 sc
ce} _d
/parenleft{799 0 176 -270 635 1554 sc
635 1554 m
546 1401 479 1249 436 1099 c
393 949 371 797 371 643 c
371 489 393 336 436 185 c
480 34 546 -117 635 -270 c
475 -270 l
375 -113 300 41 250 192 c
201 343 176 494 176 643 c
176 792 201 941 250 1092 c
299 1243 374 1397 475 1554 c
635 1554 l

ce} _d
/parenright{799 0 164 -270 623 1554 sc
164 1554 m
324 1554 l
424 1397 499 1243 548 1092 c
598 941 623 792 623 643 c
623 494 598 343 548 192 c
499 41 424 -113 324 -270 c
164 -270 l
253 -117 319 34 362 185 c
406 336 428 489 428 643 c
428 797 406 949 362 1099 c
319 1249 253 1401 164 1554 c

ce} _d
/period{651 0 219 0 430 254 sc
219 254 m
430 254 l
430 0 l
219 0 l
219 254 l

ce} _d
/slash{690 0 0 -190 690 1493 sc
520 1493 m
690 1493 l
170 -190 l
0 -190 l
520 1493 l

ce} _d
/zero{1303 0 135 -29 1167 1520 sc
651 1360 m
547 1360 469 1309 416 1206 c
364 1104 338 950 338 745 c
338 540 364 387 416 284 c
469 182 547 131 651 131 c
756 131 834 182 886 284 c
939 387 965 540 965 745 c
965 950 939 1104 886 1206 c
834 1309 756 1360 651 1360 c

651 1520 m
818 1520 946 1454 1034 1321 c
1123 1189 1167 997 1167 745 c
1167 494 1123 302 1034 169 c
946 37 818 -29 651 -29 c
484 -29 356 37 267 169 c
179 302 135 494 135 745 c
135 997 179 1189 267 1321 c
356 1454 484 1520 651 1520 c

ce} _d
/one{1303 0 225 0 1114 1493 sc
254 170 m
584 170 l
584 1309 l
225 1237 l
225 1421 l
582 1493 l
784 1493 l
784 170 l
1114 170 l
1114 0 l
254 0 l
254 170 l

ce} _d
/two{1303 0 150 0 1098 1520 sc
393 170 m
1098 170 l
1098 0 l
150 0 l
150 170 l
227 249 331 356 463 489 c
596 623 679 709 713 748 c
778 821 823 882 848 932 c
874 983 887 1032 887 1081 c
887 1160 859 1225 803 1275 c
748 1325 675 1350 586 1350 c
523 1350 456 1339 385 1317 c
315 1295 240 1262 160 1217 c
160 1421 l
241 1454 317 1478 388 1495 c
459 1512 523 1520 582 1520 c
737 1520 860 1481 952 1404 c
1044 1327 1090 1223 1090 1094 c
1090 1033 1078 974 1055 919 c
1032 864 991 800 930 725 c
913 706 860 650 771 557 c
682 465 556 336 393 170 c

ce} _d
/four{1303 0 100 0 1188 1493 sc
774 1317 m
264 520 l
774 520 l
774 1317 l

721 1493 m
975 1493 l
975 520 l
1188 520 l
1188 352 l
975 352 l
975 0 l
774 0 l
774 352 l
100 352 l
100 547 l
721 1493 l

ce} _d
/five{1303 0 158 -29 1124 1493 sc
221 1493 m
1014 1493 l
1014 1323 l
406 1323 l
406 957 l
435 967 465 974 494 979 c
523 984 553 987 582 987 c
749 987 881 941 978 850 c
1075 759 1124 635 1124 479 c
1124 318 1074 193 974 104 c
874 15 733 -29 551 -29 c
488 -29 424 -24 359 -13 c
294 -2 227 14 158 35 c
158 238 l
218 205 280 181 344 165 c
408 149 476 141 547 141 c
662 141 754 171 821 232 c
888 293 922 375 922 479 c
922 583 888 665 821 726 c
754 787 662 817 547 817 c
493 817 439 811 385 799 c
332 787 277 768 221 743 c
221 1493 l

ce} _d
/eight{1303 0 139 -29 1163 1520 sc
651 709 m
555 709 479 683 424 632 c
369 581 342 510 342 420 c
342 330 369 259 424 208 c
479 157 555 131 651 131 c
747 131 823 157 878 208 c
933 260 961 331 961 420 c
961 510 933 581 878 632 c
823 683 748 709 651 709 c

449 795 m
362 816 295 857 246 916 c
198 975 174 1048 174 1133 c
174 1252 216 1347 301 1416 c
386 1485 503 1520 651 1520 c
800 1520 916 1485 1001 1416 c
1086 1347 1128 1252 1128 1133 c
1128 1048 1104 975 1055 916 c
1007 857 940 816 854 795 c
951 772 1027 728 1081 662 c
1136 596 1163 515 1163 420 c
1163 275 1119 164 1030 87 c
942 10 816 -29 651 -29 c
486 -29 360 10 271 87 c
183 164 139 275 139 420 c
139 515 166 596 221 662 c
276 728 352 772 449 795 c

375 1114 m
375 1037 399 976 447 933 c
496 890 564 868 651 868 c
738 868 805 890 854 933 c
903 976 928 1037 928 1114 c
928 1191 903 1252 854 1295 c
805 1338 738 1360 651 1360 c
564 1360 496 1338 447 1295 c
399 1252 375 1191 375 1114 c

ce} _d
/at{2048 0 135 -356 1905 1442 sc
762 537 m
762 442 786 367 833 312 c
880 258 945 231 1028 231 c
1110 231 1174 258 1221 313 c
1268 368 1292 442 1292 537 c
1292 630 1268 704 1220 759 c
1172 814 1107 842 1026 842 c
945 842 881 815 833 760 c
786 705 762 631 762 537 c

1307 238 m
1267 187 1221 149 1169 124 c
1118 100 1058 88 989 88 c
874 88 781 129 709 212 c
638 295 602 404 602 537 c
602 670 638 779 710 862 c
782 945 875 987 989 987 c
1058 987 1118 974 1170 949 c
1222 924 1268 887 1307 836 c
1307 967 l
1450 967 l
1450 231 l
1547 246 1623 290 1678 364 c
1733 439 1761 535 1761 653 c
1761 724 1750 791 1729 854 c
1708 917 1677 975 1634 1028 c
1565 1115 1480 1182 1380 1228 c
1281 1275 1172 1298 1055 1298 c
973 1298 894 1287 819 1265 c
744 1244 674 1212 610 1169 c
505 1101 423 1012 364 901 c
305 791 276 672 276 543 c
276 437 295 338 333 245 c
372 152 427 71 500 0 c
570 -69 651 -122 743 -158 c
835 -195 933 -213 1038 -213 c
1124 -213 1208 -198 1291 -169 c
1374 -140 1451 -99 1520 -45 c
1610 -156 l
1527 -221 1436 -270 1337 -304 c
1239 -339 1139 -356 1038 -356 c
915 -356 798 -334 689 -290 c
580 -247 482 -183 397 -100 c
312 -17 247 80 202 189 c
157 299 135 417 135 543 c
135 664 158 780 203 890 c
248 1000 313 1097 397 1180 c
483 1265 582 1329 695 1374 c
808 1419 927 1442 1053 1442 c
1194 1442 1325 1413 1446 1355 c
1567 1297 1669 1215 1751 1108 c
1801 1043 1839 972 1865 895 c
1892 818 1905 739 1905 657 c
1905 482 1852 343 1746 242 c
1640 141 1494 88 1307 84 c
1307 238 l

ce} _d
/P{1235 0 201 0 1165 1493 sc
403 1327 m
403 766 l
657 766 l
751 766 824 790 875 839 c
926 888 952 957 952 1047 c
952 1136 926 1205 875 1254 c
824 1303 751 1327 657 1327 c
403 1327 l

201 1493 m
657 1493 l
824 1493 951 1455 1036 1379 c
1122 1304 1165 1193 1165 1047 c
1165 900 1122 788 1036 713 c
951 638 824 600 657 600 c
403 600 l
403 0 l
201 0 l
201 1493 l

ce} _d
/U{1499 0 178 -29 1321 1493 sc
178 1493 m
381 1493 l
381 586 l
381 426 410 311 468 240 c
526 170 620 135 750 135 c
879 135 973 170 1031 240 c
1089 311 1118 426 1118 586 c
1118 1493 l
1321 1493 l
1321 561 l
1321 366 1273 219 1176 120 c
1080 21 938 -29 750 -29 c
561 -29 419 21 322 120 c
226 219 178 366 178 561 c
178 1493 l

ce} _d
/V{1401 0 16 0 1384 1493 sc
586 0 m
16 1493 l
227 1493 l
700 236 l
1174 1493 l
1384 1493 l
815 0 l
586 0 l

ce} _d
/bracketleft{799 0 176 -270 600 1556 sc
176 1556 m
600 1556 l
600 1413 l
360 1413 l
360 -127 l
600 -127 l
600 -270 l
176 -270 l
176 1556 l

ce} _d
/bracketright{799 0 199 -270 623 1556 sc
623 1556 m
623 -270 l
199 -270 l
199 -127 l
438 -127 l
438 1413 l
199 1413 l
199 1556 l
623 1556 l

ce} _d
/underscore{1024 0 -20 -483 1044 -340 sc
1044 -340 m
1044 -483 l
-20 -483 l
-20 -340 l
1044 -340 l

ce} _d
/c{1126 0 113 -29 999 1147 sc
999 1077 m
999 905 l
947 934 895 955 842 969 c
790 984 737 991 684 991 c
565 991 472 953 406 877 c
340 802 307 696 307 559 c
307 422 340 316 406 240 c
472 165 565 127 684 127 c
737 127 790 134 842 148 c
895 163 947 184 999 213 c
999 43 l
948 19 894 1 839 -11 c
784 -23 726 -29 664 -29 c
495 -29 361 24 262 130 c
163 236 113 379 113 559 c
113 742 163 885 263 990 c
364 1095 501 1147 676 1147 c
733 1147 788 1141 842 1129 c
896 1118 948 1100 999 1077 c

ce} _d
/e{1260 0 113 -29 1151 1147 sc
1151 606 m
1151 516 l
305 516 l
313 389 351 293 419 226 c
488 160 583 127 705 127 c
776 127 844 136 910 153 c
977 170 1043 196 1108 231 c
1108 57 l
1042 29 974 8 905 -7 c
836 -22 765 -29 694 -29 c
515 -29 374 23 269 127 c
165 231 113 372 113 549 c
113 732 162 878 261 985 c
360 1093 494 1147 662 1147 c
813 1147 932 1098 1019 1001 c
1107 904 1151 773 1151 606 c

967 660 m
966 761 937 841 882 901 c
827 961 755 991 664 991 c
561 991 479 962 417 904 c
356 846 320 764 311 659 c
967 660 l

ce} _d
/f{721 0 47 0 760 1556 sc
760 1556 m
760 1403 l
584 1403 l
518 1403 472 1390 446 1363 c
421 1336 408 1288 408 1219 c
408 1120 l
711 1120 l
711 977 l
408 977 l
408 0 l
223 0 l
223 977 l
47 977 l
47 1120 l
223 1120 l
223 1198 l
223 1323 252 1413 310 1470 c
368 1527 460 1556 586 1556 c
760 1556 l

ce} _d
/i{569 0 193 0 377 1556 sc
193 1120 m
377 1120 l
377 0 l
193 0 l
193 1120 l

193 1556 m
377 1556 l
377 1323 l
193 1323 l
193 1556 l

ce} _d
/l{569 0 193 0 377 1556 sc
193 1556 m
377 1556 l
377 0 l
193 0 l
193 1556 l

ce} _d
/m{1995 0 186 0 1821 1147 sc
1065 905 m
1111 988 1166 1049 1230 1088 c
1294 1127 1369 1147 1456 1147 c
1573 1147 1663 1106 1726 1024 c
1789 943 1821 827 1821 676 c
1821 0 l
1636 0 l
1636 670 l
1636 777 1617 857 1579 909 c
1541 961 1483 987 1405 987 c
1310 987 1234 955 1179 892 c
1124 829 1096 742 1096 633 c
1096 0 l
911 0 l
911 670 l
911 778 892 858 854 909 c
816 961 757 987 678 987 c
584 987 509 955 454 891 c
399 828 371 742 371 633 c
371 0 l
186 0 l
186 1120 l
371 1120 l
371 946 l
413 1015 463 1065 522 1098 c
581 1131 650 1147 731 1147 c
812 1147 881 1126 938 1085 c
995 1044 1038 984 1065 905 c

ce} _d
/n{1298 0 186 0 1124 1147 sc
1124 676 m
1124 0 l
940 0 l
940 670 l
940 776 919 855 878 908 c
837 961 775 987 692 987 c
593 987 514 955 457 892 c
400 829 371 742 371 633 c
371 0 l
186 0 l
186 1120 l
371 1120 l
371 946 l
415 1013 467 1064 526 1097 c
586 1130 655 1147 733 1147 c
862 1147 959 1107 1025 1027 c
1091 948 1124 831 1124 676 c

ce} _d
/o{1253 0 113 -29 1141 1147 sc
627 991 m
528 991 450 952 393 875 c
336 798 307 693 307 559 c
307 425 335 319 392 242 c
449 165 528 127 627 127 c
725 127 803 166 860 243 c
917 320 946 426 946 559 c
946 692 917 797 860 874 c
803 952 725 991 627 991 c

627 1147 m
787 1147 913 1095 1004 991 c
1095 887 1141 743 1141 559 c
1141 376 1095 232 1004 127 c
913 23 787 -29 627 -29 c
466 -29 340 23 249 127 c
158 232 113 376 113 559 c
113 743 158 887 249 991 c
340 1095 466 1147 627 1147 c

ce} _d
/r{842 0 186 0 842 1147 sc
842 948 m
821 960 799 969 774 974 c
750 980 723 983 694 983 c
590 983 510 949 454 881 c
399 814 371 717 371 590 c
371 0 l
186 0 l
186 1120 l
371 1120 l
371 946 l
410 1014 460 1064 522 1097 c
584 1130 659 1147 748 1147 c
761 1147 775 1146 790 1144 c
805 1143 822 1140 841 1137 c
842 948 l

ce} _d
/s{1067 0 111 -29 967 1147 sc
907 1087 m
907 913 l
855 940 801 960 745 973 c
689 986 631 993 571 993 c
480 993 411 979 365 951 c
320 923 297 881 297 825 c
297 782 313 749 346 724 c
379 700 444 677 543 655 c
606 641 l
737 613 829 573 884 522 c
939 471 967 400 967 309 c
967 205 926 123 843 62 c
761 1 648 -29 504 -29 c
444 -29 381 -23 316 -11 c
251 0 183 18 111 41 c
111 231 l
179 196 246 169 312 151 c
378 134 443 125 508 125 c
595 125 661 140 708 169 c
755 199 778 241 778 295 c
778 345 761 383 727 410 c
694 437 620 462 506 487 c
442 502 l
328 526 246 563 195 612 c
144 662 119 730 119 817 c
119 922 156 1004 231 1061 c
306 1118 412 1147 549 1147 c
617 1147 681 1142 741 1132 c
801 1122 856 1107 907 1087 c

ce} _d
/t{803 0 55 0 754 1438 sc
375 1438 m
375 1120 l
754 1120 l
754 977 l
375 977 l
375 369 l
375 278 387 219 412 193 c
437 167 488 154 565 154 c
754 154 l
754 0 l
565 0 l
423 0 325 26 271 79 c
217 132 190 229 190 369 c
190 977 l
55 977 l
55 1120 l
190 1120 l
190 1438 l
375 1438 l

ce} _d
/x{1212 0 59 0 1145 1120 sc
1124 1120 m
719 575 l
1145 0 l
928 0 l
602 440 l
276 0 l
59 0 l
494 586 l
96 1120 l
313 1120 l
610 721 l
907 1120 l
1124 1120 l

ce} _d
/y{1212 0 61 -426 1151 1120 sc
659 -104 m
607 -237 556 -324 507 -365 c
458 -406 392 -426 309 -426 c
162 -426 l
162 -272 l
270 -272 l
321 -272 360 -260 388 -236 c
416 -212 447 -155 481 -66 c
514 18 l
61 1120 l
256 1120 l
606 244 l
956 1120 l
1151 1120 l
659 -104 l

ce} _d
/z{1075 0 88 0 987 1120 sc
113 1120 m
987 1120 l
987 952 l
295 147 l
987 147 l
987 0 l
88 0 l
88 168 l
780 973 l
113 973 l
113 1120 l

ce} _d
end readonly def

/BuildGlyph {
 exch begin
 CharStrings exch
 2 copy known not {pop /.notdef} if
 true 3 1 roll get exec
 end
} _d

/BuildChar {
 1 index /Encoding get exch get
 1 index /BuildGlyph get exec
} _d

FontName currentdict end definefont pop
end
%%EndProlog
mpldict begin
0 0 translate
0 0 460.8 345.6 rectclip
gsave
0 0 m
460.8 0 l
460.8 345.6 l
0 345.6 l
cl
1 setgray
fill
grestore
gsave
57.6 38.016 m
414.72 38.016 l
414.72 304.128 l
57.6 304.128 l
cl
1 setgray
fill
grestore
0.8 setlinewidth
1 setlinejoin
2 setlinecap
[] 0 setdash
0.69 setgray
gsave
57.6 38.016 357.12 266.112 rectclip
99.610688 38.016 m
99.610688 304.128 l
stroke
grestore
0 setlinecap
0 setgray
gsave
/o {
gsave
newpath
translate
0.8 setlinewidth
1 setlinejoin

0 setlinecap

0 0 m
0 -3.5 l

gsave
0 setgray
fill
grestore
stroke
grestore
} bind def
99.6107 38.016 o
grestore
/DejaVuSans 10.000 selectfont
gsave

84.2904 23.4222 translate
0 rotate
0 0 m /minus glyphshow
8.37891 0 m /zero glyphshow
14.7412 0 m /period glyphshow
17.9199 0 m /one glyphshow
24.2822 0 m /zero glyphshow
grestore
2 setlinecap
0.69 setgray
gsave
57.6 38.016 357.12 266.112 rectclip
167.640776 38.016 m
167.640776 304.128 l
stroke
grestore
0 setlinecap
0 setgray
gsave
/o {
gsave
newpath
translate
0.8 setlinewidth
1 setlinejoin

0 setlinecap

0 0 m
0 -3.5 l

gsave
0 setgray
fill
grestore
stroke
grestore
} bind def
167.641 38.016 o
grestore
/DejaVuSans 10.000 selectfont
gsave

152.32 23.4222 translate
0 rotate
0 0 m /minus glyphshow
8.37891 0 m /zero glyphshow
14.7412 0 m /period glyphshow
17.9199 0 m /zero glyphshow
24.2822 0 m /five glyphshow
grestore
2 setlinecap
0.69 setgray
gsave
57.6 38.016 357.12 266.112 rectclip
235.670864 38.016 m
235.670864 304.128 l
stroke
grestore
0 setlinecap
0 setgray
gsave
/o {
gsave
newpath
translate
0.8 setlinewidth
1 setlinejoin

0 setlinecap

0 0 m
0 -3.5 l

gsave
0 setgray
fill
grestore
stroke
grestore
} bind def
235.671 38.016 o
grestore
/DejaVuSans 10.000 selectfont
gsave

224.538 23.4222 translate
0 rotate
0 0 m /zero glyphshow
6.3623 0 m /period glyphshow
9.54102 0 m /zero glyphshow
15.9033 0 m /zero glyphshow
grestore
2 setlinecap
0.69 setgray
gsave
57.6 38.016 357.12 266.112 rectclip
303.700951 38.016 m
303.700951 304.128 l
stroke
grestore
0 setlinecap
0 setgray
gsave
/o {
gsave
newpath
translate
0.8 setlinewidth
1 setlinejoin

0 setlinecap

0 0 m
0 -3.5 l

gsave
0 setgray
fill
grestore
stroke
grestore
} bind def
303.701 38.016 o
grestore
/DejaVuSans 10.000 selectfont
gsave

292.568 23.4222 translate
0 rotate
0 0 m /zero glyphshow
6.3623 0 m /period glyphshow
9.54102 0 m /zero glyphshow
15.9033 0 m /five glyphshow
grestore
2 setlinecap
0.69 setgray
gsave
57.6 38.016 357.12 266.112 rectclip
371.731039 38.016 m
371.731039 304.128 l
stroke
grestore
0 setlinecap
0 setgray
gsave
/o {
gsave
newpath
translate
0.8 setlinewidth
1 setlinejoin

0 setlinecap

0 0 m
0 -3.5 l

gsave
0 setgray
fill
grestore
stroke
grestore
} bind def
371.731 38.016 o
grestore
/DejaVuSans 10.000 selectfont
gsave

360.598 23.4222 translate
0 rotate
0 0 m /zero glyphshow
6.3623 0 m /period glyphshow
9.54102 0 m /one glyphshow
15.9033 0 m /zero glyphshow
grestore
/DejaVuSans 10.000 selectfont
gsave

222.824 9.75037 translate
0 rotate
0 0 m /x glyphshow
5.91797 0 m /space glyphshow
9.09668 0 m /bracketleft glyphshow
12.998 0 m /m glyphshow
22.7393 0 m /bracketright glyphshow
grestore
2 setlinecap
0.69 setgray
gsave
57.6 38.016 357.12 266.112 rectclip
57.6 76.035089 m
414.72 76.035089 l
stroke
grestore
0 setlinecap
0 setgray
gsave
/o {
gsave
newpath
translate
0.8 setlinewidth
1 setlinejoin

0 setlinecap

-0 0 m
-3.5 0 l

gsave
0 setgray
fill
grestore
stroke
grestore
} bind def
57.6 76.0351 o
grestore
/DejaVuSans 10.000 selectfont
gsave

44.2406 72.2382 translate
0 rotate
0 0 m /zero glyphshow
grestore
2 setlinecap
0.69 setgray
gsave
57.6 38.016 357.12 266.112 rectclip
57.6 129.099846 m
414.72 129.099846 l
stroke
grestore
0 setlinecap
0 setgray
gsave
/o {
gsave
newpath
translate
0.8 setlinewidth
1 setlinejoin

0 setlinecap

-0 0 m
-3.5 0 l

gsave
0 setgray
fill
grestore
stroke
grestore
} bind def
57.6 129.1 o
grestore
/DejaVuSans 10.000 selectfont
gsave

44.2406 125.303 translate
0 rotate
0 0 m /five glyphshow
grestore
2 setlinecap
0.69 setgray
gsave
57.6 38.016 357.12 266.112 rectclip
57.6 182.164604 m
414.72 182.164604 l
stroke
grestore
0 setlinecap
0 setgray
gsave
/o {
gsave
newpath
translate
0.8 setlinewidth
1 setlinejoin

0 setlinecap

-0 0 m
-3.5 0 l

gsave
0 setgray
fill
grestore
stroke
grestore
} bind def
57.6 182.165 o
grestore
/DejaVuSans 10.000 selectfont
gsave

37.8813 178.368 translate
0 rotate
0 0 m /one glyphshow
6.3623 0 m /zero glyphshow
grestore
2 setlinecap
0.69 setgray
gsave
57.6 38.016 357.12 266.112 rectclip
57.6 235.229361 m
414.72 235.229361 l
stroke
grestore
0 setlinecap
0 setgray
gsave
/o {
gsave
newpath
translate
0.8 setlinewidth
1 setlinejoin

0 setlinecap

-0 0 m
-3.5 0 l

gsave
0 setgray
fill
grestore
stroke
grestore
} bind def
57.6 235.229 o
grestore
/DejaVuSans 10.000 selectfont
gsave

37.8813 231.432 translate
0 rotate
0 0 m /one glyphshow
6.3623 0 m /five glyphshow
grestore
2 setlinecap
0.69 setgray
gsave
57.6 38.016 357.12 266.112 rectclip
57.6 288.294118 m
414.72 288.294118 l
stroke
grestore
0 setlinecap
0 setgray
gsave
/o {
gsave
newpath
translate
0.8 setlinewidth
1 setlinejoin

0 setlinecap

-0 0 m
-3.5 0 l

gsave
0 setgray
fill
grestore
stroke
grestore
} bind def
57.6 288.294 o
grestore
/DejaVuSans 10.000 selectfont
gsave

37.8813 284.497 translate
0 rotate
0 0 m /two glyphshow
6.3623 0 m /zero glyphshow
grestore
1.5 setlinewidth
2 setlinecap
0.122 0.467 0.706 setrgbcolor
gsave
57.6 38.016 357.12 266.112 rectclip
73.832727 76.474288 m
74.955224 76.552019 l
76.243714 76.524585 l
77.722688 76.476506 l
79.420719 76.430894 l
81.3691 76.382746 l
83.60593 76.3303 l
86.172025 76.272087 l
89.117727 76.208413 l
92.500183 76.14111 l
96.38198 76.073693 l
100.836046 76.012248 l
105.948915 75.970716 l
111.273086 75.961244 l
116.456298 75.995547 l
121.639511 76.081237 l
126.822723 76.227677 l
132.006072 76.446671 l
137.189284 76.75125 l
142.372496 77.148059 l
147.330937 77.60899 l
151.825141 78.063829 l
155.864904 78.434295 l
159.495942 78.659577 l
162.759753 78.719614 l
165.693483 78.64042 l
168.330329 78.478636 l
170.700497 78.303024 l
172.831063 78.173896 l
174.745974 78.13103 l
176.467272 78.188319 l
178.014412 78.33707 l
179.405083 78.553585 l
180.655068 78.832101 l
182.267245 79.229418 l
184.308147 79.732355 l
186.34905 80.206022 l
188.389953 80.578112 l
190.430855 80.832462 l
192.471758 80.971523 l
194.512661 81.006026 l
196.553563 80.950244 l
198.594466 80.82862 l
200.635368 80.656669 l
202.473133 80.422069 l
204.191709 80.186324 l
206.0873 79.913974 l
208.177864 79.579295 l
210.483676 79.185321 l
212.394369 78.846089 l
213.728167 78.605015 l
215.831657 78.225029 l
218.780353 77.672031 l
221.595166 77.140333 l
224.143111 76.663255 l
225.990985 76.315459 l
227.086732 76.106124 l
228.537011 75.825005 l
230.426628 75.453754 l
232.137027 75.103803 l
233.856733 74.796282 l
235.670864 74.439591 l
237.484995 74.071587 l
239.209326 73.768216 l
240.92797 73.429939 l
242.823506 73.059631 l
244.265731 72.777677 l
245.362199 72.564102 l
247.219923 72.20306 l
249.763024 71.704156 l
252.567905 71.161006 l
255.516465 70.622452 l
257.620227 70.249948 l
258.957563 70.012069 l
260.879277 69.675533 l
263.185633 69.291641 l
265.273204 68.986497 l
267.162808 68.781094 l
268.87322 68.627674 l
270.706359 68.475006 l
272.747262 68.414067 l
274.788164 68.444154 l
276.829067 68.575235 l
278.869969 68.827781 l
280.910872 69.215419 l
282.951775 69.740049 l
284.992677 70.387301 l
287.03358 71.114235 l
289.074483 71.812493 l
290.68666 72.324706 l
291.936644 72.668576 l
293.327315 72.93287 l
294.874456 73.123309 l
296.595753 73.223771 l
298.510664 73.233206 l
300.641094 73.170908 l
303.011398 73.077918 l
305.648245 73.011937 l
308.581974 73.035911 l
311.845786 73.199797 l
315.476824 73.521677 l
319.516586 73.97451 l
324.01079 74.494439 l
328.969231 75.002889 l
334.152443 75.430834 l
339.335656 75.753472 l
344.519004 75.981075 l
349.702216 76.129104 l
354.885429 76.211083 l
360.068641 76.237714 l
365.39322 76.216479 l
370.50677 76.161715 l
374.961108 76.088333 l
378.842905 76.009535 l
382.225361 75.93185 l
385.171063 75.858898 l
387.738519 75.79241 l
389.973988 75.732569 l
391.922369 75.677674 l
393.6204 75.62567 l
395.099374 75.571336 l
396.387864 75.537394 l
397.510361 75.608098 l
398.487273 75.809336 l
stroke
grestore
1 0.498 0.055 setrgbcolor
gsave
57.6 38.016 357.12 266.112 rectclip
73.832727 258.079046 m
74.955224 273.699188 l
76.243714 281.322471 l
77.722688 285.524138 l
79.420719 287.933278 l
81.3691 289.355414 l
83.60593 290.252208 l
86.172025 290.861391 l
89.117727 291.300768 l
92.500183 291.626585 l
96.38198 291.862193 l
100.836046 292.008652 l
105.948915 292.032 l
111.273086 291.890848 l
116.456298 291.54062 l
121.639511 290.899598 l
126.822723 289.840426 l
132.006072 288.162518 l
137.189284 285.559161 l
142.372496 281.601591 l
147.330937 275.990524 l
151.825141 268.800249 l
155.864904 260.374627 l
159.495942 251.318596 l
162.759753 242.355958 l
165.693483 234.116063 l
168.330329 227.003262 l
170.700497 221.159771 l
172.831063 216.473092 l
174.745974 212.650307 l
176.467272 209.313595 l
178.014412 206.115913 l
179.405083 202.817407 l
180.655068 199.022216 l
182.267245 193.503481 l
184.308147 185.59471 l
186.34905 176.324297 l
188.389953 166.503814 l
190.430855 156.578476 l
192.471758 146.839076 l
194.512661 137.454786 l
196.553563 128.515816 l
198.594466 120.068119 l
200.635368 112.263673 l
202.473133 105.4682 l
204.191709 99.439513 l
206.0873 93.365508 l
208.177864 87.15587 l
210.483676 80.922523 l
212.394369 76.22316 l
213.728167 73.185225 l
215.831657 68.848412 l
218.780353 63.45768 l
221.595166 59.312368 l
224.143111 56.322169 l
225.990985 54.524759 l
227.086732 53.58997 l
228.537011 52.520609 l
230.426628 51.416438 l
232.137027 50.707811 l
233.856733 50.270239 l
235.670864 50.112 l
237.484995 50.241266 l
239.209326 50.648166 l
240.92797 51.329199 l
242.823506 52.401001 l
244.265731 53.433535 l
245.362199 54.345294 l
247.219923 56.10906 l
249.763024 59.032398 l
252.567905 63.085484 l
255.516465 68.376476 l
257.620227 72.634593 l
258.957563 75.63519 l
260.879277 80.300413 l
263.185633 86.472969 l
265.273204 92.630349 l
267.162808 98.660097 l
268.87322 104.661828 l
270.706359 111.46664 l
272.747262 119.314387 l
274.788164 127.832554 l
276.829067 136.858869 l
278.869969 146.329018 l
280.910872 156.114478 l
282.951775 165.99036 l
284.992677 175.595824 l
287.03358 184.429408 l
289.074483 191.745976 l
290.68666 196.738309 l
291.936644 200.165231 l
293.327315 203.224945 l
294.874456 206.328172 l
296.595753 209.728561 l
298.510664 213.755115 l
300.641094 218.729406 l
303.011398 224.885979 l
305.648245 232.287451 l
308.581974 240.758709 l
311.845786 249.892215 l
315.476824 259.068173 l
319.516586 267.582944 l
324.01079 274.858122 l
328.969231 280.562583 l
334.152443 284.618853 l
339.335656 287.31985 l
344.519004 289.087967 l
349.702216 290.227798 l
354.885429 290.938866 l
360.068641 291.350649 l
365.39322 291.542743 l
370.50677 291.557601 l
374.961108 291.438736 l
378.842905 291.222232 l
382.225361 290.90915 l
385.171063 290.478264 l
387.738519 289.874387 l
389.973988 288.982899 l
391.922369 287.562886 l
393.6204 285.153746 l
395.099374 280.95314 l
396.387864 273.337286 l
397.510361 257.751105 l
398.487273 175.386218 l
stroke
grestore
0.173 0.627 0.173 setrgbcolor
gsave
57.6 38.016 357.12 266.112 rectclip
73.832727 76.035089 m
74.955224 76.035089 l
76.243714 76.035089 l
77.722688 76.035089 l
79.420719 76.035089 l
81.3691 76.035089 l
83.60593 76.035089 l
86.172025 76.035089 l
89.117727 76.035089 l
92.500183 76.035089 l
96.38198 76.035089 l
100.836046 76.035089 l
105.948915 76.035089 l
111.273086 76.035089 l
116.456298 76.035089 l
121.639511 76.035089 l
126.822723 76.035089 l
132.006072 76.035089 l
137.189284 76.035089 l
142.372496 76.035089 l
147.330937 76.035089 l
151.825141 76.035089 l
155.864904 76.035089 l
159.495942 76.035089 l
162.759753 76.035089 l
165.693483 76.035089 l
168.330329 76.035089 l
170.700497 76.035089 l
172.831063 76.035089 l
174.745974 76.035089 l
176.467272 76.035089 l
178.014412 76.035089 l
179.405083 76.035089 l
180.655068 76.035089 l
182.267245 76.035089 l
184.308147 76.035089 l
186.34905 76.035089 l
188.389953 76.035089 l
190.430855 76.035089 l
192.471758 76.035089 l
194.512661 76.035089 l
196.553563 76.035089 l
198.594466 76.035089 l
200.635368 76.035089 l
202.473133 76.035089 l
204.191709 76.035089 l
206.0873 76.035089 l
208.177864 76.035089 l
210.483676 76.035089 l
212.394369 76.035089 l
213.728167 76.035089 l
215.831657 76.035089 l
218.780353 76.035089 l
221.595166 76.035089 l
224.143111 76.035089 l
225.990985 76.035089 l
227.086732 76.035089 l
228.537011 76.035089 l
230.426628 76.035089 l
232.137027 76.035089 l
233.856733 76.035089 l
235.670864 76.035089 l
237.484995 76.035089 l
239.209326 76.035089 l
240.92797 76.035089 l
242.823506 76.035089 l
244.265731 76.035089 l
245.362199 76.035089 l
247.219923 76.035089 l
249.763024 76.035089 l
252.567905 76.035089 l
255.516465 76.035089 l
257.620227 76.035089 l
258.957563 76.035089 l
260.879277 76.035089 l
263.185633 76.035089 l
265.273204 76.035089 l
267.162808 76.035089 l
268.87322 76.035089 l
270.706359 76.035089 l
272.747262 76.035089 l
274.788164 76.035089 l
276.829067 76.035089 l
278.869969 76.035089 l
280.910872 76.035089 l
282.951775 76.035089 l
284.992677 76.035089 l
287.03358 76.035089 l
289.074483 76.035089 l
290.68666 76.035089 l
291.936644 76.035089 l
293.327315 76.035089 l
294.874456 76.035089 l
296.595753 76.035089 l
298.510664 76.035089 l
300.641094 76.035089 l
303.011398 76.035089 l
305.648245 76.035089 l
308.581974 76.035089 l
311.845786 76.035089 l
315.476824 76.035089 l
319.516586 76.035089 l
324.01079 76.035089 l
328.969231 76.035089 l
334.152443 76.035089 l
339.335656 76.035089 l
344.519004 76.035089 l
349.702216 76.035089 l
354.885429 76.035089 l
360.068641 76.035089 l
365.39322 76.035089 l
370.50677 76.035089 l
374.961108 76.035089 l
378.842905 76.035089 l
382.225361 76.035089 l
385.171063 76.035089 l
387.738519 76.035089 l
389.973988 76.035089 l
391.922369 76.035089 l
393.6204 76.035089 l
395.099374 76.035089 l
396.387864 76.035089 l
397.510361 76.035089 l
398.487273 76.035089 l
stroke
grestore
0.8 setlinewidth
0 setlinejoin
0 setgray
gsave
57.6 38.016 m
57.6 304.128 l
stroke
grestore
gsave
414.72 38.016 m
414.72 304.128 l
stroke
grestore
gsave
57.6 38.016 m
414.72 38.016 l
stroke
grestore
gsave
57.6 304.128 m
414.72 304.128 l
stroke
grestore
/DejaVuSans 12.000 selectfont
gsave

130.894 310.128 translate
0 rotate
0 0 m /V glyphshow
7.33398 0 m /e glyphshow
14.7168 0 m /l glyphshow
18.0508 0 m /o glyphshow
25.3926 0 m /c glyphshow
31.9902 0 m /i glyphshow
35.3242 0 m /t glyphshow
40.0293 0 m /y glyphshow
47.1309 0 m /P glyphshow
54.1172 0 m /r glyphshow
58.8008 0 m /o glyphshow
66.1426 0 m /f glyphshow
70.3672 0 m /i glyphshow
73.7012 0 m /l glyphshow
77.0352 0 m /e glyphshow
84.418 0 m /at glyphshow
96.418 0 m /zero glyphshow
104.053 0 m /period glyphshow
107.867 0 m /one glyphshow
115.502 0 m /eight glyphshow
123.137 0 m /s glyphshow
129.389 0 m /space glyphshow
133.203 0 m /parenleft glyphshow
137.885 0 m /l glyphshow
141.219 0 m /i glyphshow
144.553 0 m /n glyphshow
152.158 0 m /e glyphshow
159.541 0 m /one glyphshow
167.176 0 m /four glyphshow
174.811 0 m /zero glyphshow
182.445 0 m /m glyphshow
194.135 0 m /m glyphshow
205.824 0 m /parenright glyphshow
grestore
1 setlinewidth
0 setlinecap
0.8 setgray
gsave
64.6 147.142312 m
144.19375 147.142312 l
145.527083 147.142312 146.19375 147.808979 146.19375 149.142312 c
146.19375 193.001687 l
146.19375 194.335021 145.527083 195.001687 144.19375 195.001687 c
64.6 195.001687 l
63.266667 195.001687 62.6 194.335021 62.6 193.001687 c
62.6 149.142312 l
62.6 147.808979 63.266667 147.142312 64.6 147.142312 c
cl
gsave
1 setgray
fill
grestore
stroke
grestore
1.5 setlinewidth
1 setlinejoin
2 setlinecap
0.122 0.467 0.706 setrgbcolor
gsave
66.6 186.907937 m
76.6 186.907937 l
86.6 186.907937 l
stroke
grestore
0 setgray
/DejaVuSans 10.000 selectfont
gsave

94.6 183.408 translate
0 rotate
0 0 m /U glyphshow
7.31934 0 m /underscore glyphshow
12.3193 0 m /x glyphshow
18.2373 0 m /space glyphshow
21.416 0 m /bracketleft glyphshow
25.3174 0 m /m glyphshow
35.0586 0 m /slash glyphshow
38.4277 0 m /s glyphshow
43.6377 0 m /bracketright glyphshow
grestore
1 0.498 0.055 setrgbcolor
gsave
66.6 171.954812 m
76.6 171.954812 l
86.6 171.954812 l
stroke
grestore
0 setgray
/DejaVuSans 10.000 selectfont
gsave

94.6 168.455 translate
0 rotate
0 0 m /U glyphshow
7.31934 0 m /underscore glyphshow
12.3193 0 m /y glyphshow
18.2373 0 m /space glyphshow
21.416 0 m /bracketleft glyphshow
25.3174 0 m /m glyphshow
35.0586 0 m /slash glyphshow
38.4277 0 m /s glyphshow
43.6377 0 m /bracketright glyphshow
grestore
0.173 0.627 0.173 setrgbcolor
gsave
66.6 157.001687 m
76.6 157.001687 l
86.6 157.001687 l
stroke
grestore
0 setgray
/DejaVuSans 10.000 selectfont
gsave

94.6 153.502 translate
0 rotate
0 0 m /U glyphshow
7.31934 0 m /underscore glyphshow
12.3193 0 m /z glyphshow
17.5684 0 m /space glyphshow
20.7471 0 m /bracketleft glyphshow
24.6484 0 m /m glyphshow
34.3896 0 m /slash glyphshow
37.7588 0 m /s glyphshow
42.9688 0 m /bracketright glyphshow
grestore

end
showpage
