#           x             T
    -0.118947       349.902
    -0.118121       349.896
    -0.117174       349.889
    -0.116087       349.882
     -0.11484       349.877
    -0.113408       349.874
    -0.111764       349.872
    -0.109877        349.87
    -0.107712       349.869
    -0.105227       349.868
    -0.102374       349.867
   -0.0990995       349.867
   -0.0953416       349.868
   -0.0914285       349.873
   -0.0876191       349.886
   -0.0838095       349.914
        -0.08       349.974
   -0.0761904       350.104
   -0.0723809       350.378
   -0.0685715       350.955
   -0.0649271       352.094
    -0.061624        354.13
    -0.058655       357.411
   -0.0559862       362.126
   -0.0535874       368.188
   -0.0514313       375.132
   -0.0494932       382.101
   -0.0477512       388.115
   -0.0461853       392.581
   -0.0447779       395.506
   -0.0435128       397.248
   -0.0423757       398.217
   -0.0413536       398.736
   -0.0404349       399.021
     -0.03925       399.202
     -0.03775       399.295
     -0.03625       399.322
     -0.03475       399.318
     -0.03325       399.303
     -0.03175       399.283
     -0.03025       399.261
     -0.02875       399.237
     -0.02725       399.206
     -0.02575       399.168
   -0.0243994       399.121
   -0.0231362       399.063
    -0.021743       398.976
   -0.0202065       398.843
   -0.0189203       398.706
   -0.0180315         398.6
   -0.0166427       398.418
   -0.0145812       398.107
    -0.012414       397.768
   -0.0110231       397.569
   -0.0100402       397.438
  -0.00847254       397.246
  -0.00677747       397.093
  -0.00524316       396.994
  -0.00385435       396.933
  -0.00288618       396.906
  -0.00228892       396.897
  -0.00133333       396.895
            0       396.909
   0.00133333        396.94
     0.002289       396.975
   0.00288966       397.004
   0.00386381       397.052
   0.00525697       397.128
   0.00679351        397.22
    0.0084882       397.317
    0.0100473       397.402
    0.0110276       397.451
    0.0124188       397.509
    0.0145859       397.571
    0.0166548       397.552
    0.0180384       397.498
    0.0189282       397.441
    0.0202225       397.321
    0.0217568       397.107
    0.0231456       396.815
    0.0244027       396.448
      0.02575       395.942
      0.02725       395.248
      0.02875       394.354
      0.03025       393.231
      0.03175       391.838
      0.03325        390.14
      0.03475       388.113
      0.03625       385.754
      0.03775        383.09
      0.03925       380.308
    0.0404349       377.883
    0.0413536       375.815
    0.0423757       373.651
    0.0435128       371.278
    0.0447779       368.738
    0.0461853       366.084
    0.0477511       363.378
    0.0494932       360.699
    0.0514312        358.16
    0.0535874       355.896
    0.0559862       354.009
    0.0586549       352.551
     0.061624       351.509
    0.0649271       350.819
    0.0685714       350.395
    0.0723809       350.157
    0.0761904       350.032
         0.08       349.967
    0.0838095       349.933
     0.087619       349.915
    0.0914285       349.905
    0.0953419         349.9
    0.0991002       349.897
     0.102374       349.896
     0.105227       349.896
     0.107713       349.896
     0.109878       349.897
     0.111765       349.898
     0.113408         349.9
      0.11484       349.903
     0.116088       349.907
     0.117175       349.914
     0.118122       349.921
     0.118947       349.926
     0.119665        349.93
