# vtk DataFile Version 2.0
sampleSurface
ASCII
DATASET POLYDATA
POINTS 15978 float
-4.26165e-19 0.000133477 0 -4.18079e-19 -0.000798814 0 -4.33681e-19 0.001 0 -4.09379e-19 -0.00180187
0 -0.00181681 0.000361473 0 0.00181681 0.000361473 0 -0.00181396 -0.000575145 0
0.00181396 -0.000575145 0 -0.00181945 0.00123202 0 0.00181945 0.00123202 0 -0.00181089
-0.00158285 0 0.00181089 -0.00158285 0 -4.00018e-19 -0.00288105 0 -0.00180759 -0.00266704
0 0.00180759 -0.00266704 0 -0.00351565 8.15481e-05 0 0.00351565 8.15481e-05 0
-0.00351186 -0.000939823 0 0.00351186 -0.000939823 0 -0.00351918 0.00103087 0 0.00351918
0.00103087 0 -0.00352245 0.00191322 0 0.00352245 0.00191322 0 -3.89947e-19 -0.00404214
0 -0.00350777 -0.00203871 0 0.00350777 -0.00203871 0 -0.00180405 -0.00383352 0
0.00180405 -0.00383352 0 -0.00350338 -0.00322101 0 0.00350338 -0.00322101 0 -0.005
8.60602e-05 0 0.005 8.60602e-05 0 -0.005 -0.00103629 0 0.005 -0.00103629
0 -0.005 0.00112923 0 0.005 0.00112923 0 -3.79112e-19 -0.00529135 0
-0.00180023 -0.00508853 0 0.00180023 -0.00508853 0 -0.005 0.00209882 0 0.005
0.00209882 0 -0.005 -0.00224382 0 0.005 -0.00224382 0 -0.00349866 -0.00449304
0 0.00349866 -0.00449304 0 -0.005 0.003 0 0.005 0.003 0
-0.005 -0.003543 0 0.005 -0.003543 0 -0.00637208 2.82617e-05 0 0.00639053
4.25732e-05 0 -0.00637208 0.00114892 0 -0.00637208 -0.00117745 0 0.00639053 -0.00116311
0 0.00639053 0.00116321 0 -3.67455e-19 -0.00663538 0 -0.00179612 -0.00643879 0
0.00179612 -0.00643879 0 -0.00637208 0.00219052 0 0.00639053 0.00220479 0 -0.00349357
-0.00586162 0 0.00349357 -0.00586162 0 -0.00637208 -0.00247467 0 0.00639053 -0.00246031
0 -0.005 -0.00494079 0 0.005 -0.00494079 0 -0.00637208 0.00315864 0
0.00639053 0.00317289 0 -0.00637208 -0.00387036 0 0.00639053 -0.00385597 0 -0.00637208
0.00405846 0 0.00639053 0.00407269 0 -0.00778421 -7.99569e-05 0 0.00781802 -5.3679e-05
0 -0.00778421 0.00112388 0 0.00781802 0.00115011 0 -0.00778421 -0.00137517 0
0.00781802 -0.00134884 0 -3.54912e-19 -0.00808142 0 -0.0017917 -0.00789154 0 0.0017917
-0.00789154 0 -0.00778421 0.0022428 0 -0.0034881 -0.00733407 0 0.0034881 -0.00733407
0 0.00781802 0.00226899 0 -0.005 -0.00644467 0 0.005 -0.00644467 0
-0.00778421 -0.00276868 0 0.00781802 -0.0027423 0 -0.00637208 -0.00537197 0 0.00639053
-0.00535755 0 -0.00778421 0.00328278 0 0.00781802 0.00330893 0 -0.00778421 0.00424939
0 -0.00778421 -0.00426796 0 0.00781802 -0.00424152 0 0.00781802 0.00427551 0
-0.00923755 -0.000243565 0 0.00928347 -0.000207818 0 -0.00923755 0.00104957 0 -0.00778421
0.00514782 0 0.00928347 0.00108525 0 0.00781802 0.0051739 0 -0.00923755 -0.00163485
0 0.00928347 -0.00159903 0 -0.00637208 -0.00698755 0 0.00639053 -0.0069731 0
-0.005 -0.0080627 0 0.005 -0.0080627 0 -0.00923755 0.00225148 0 0.00928347
0.0022871 0 -0.00348222 -0.00891827 0 0.00348222 -0.00891827 0 -0.00178695 -0.00945455
0 0.00178695 -0.00945455 0 -3.41418e-19 -0.00963721 0 -0.00923755 -0.00313172 0
-0.00778421 -0.00588103 0 0.00781802 -0.00585453 0 0.00928347 -0.00309583 0 -0.00923755
0.0033686 0 0.00928347 0.00340416 0 -0.00923755 0.00440692 0 0.00928347 0.00444243
0 -0.00923755 -0.00474221 0 0.00928347 -0.00470623 0 -0.00923755 0.00537198 0
-0.0107333 -0.000467921 0 0.00928347 0.00540745 0 -0.0107333 0.000921062 0 0.0107879
-0.000425364 0 0.00639053 -0.00871127 0 -0.00637208 -0.00872575 0 0.0107879 0.000963535
0 -0.00778421 -0.00761653 0 0.00781802 -0.00758997 0 -0.0107333 -0.00196233 0
0.0107879 -0.00191968 0 -0.0107333 0.00221206 0 -0.005 -0.00980352 0 0.005
-0.00980352 0 0.0107879 0.00225445 0 -0.00923755 0.00626897 0 -0.00347589 -0.0106227
0 0.00347589 -0.0106227 0 0.00928347 0.00630439 0 -0.0107333 0.00341198 0
-0.00178183 -0.0111362 0 0.00178183 -0.0111362 0 -0.00923755 -0.00647493 0 0.00928347
-0.00643887 0 -3.26899e-19 -0.0113111 0 -0.0107333 -0.00357015 0 0.0107879 0.00345431
0 0.0107879 -0.00352741 0 -0.0107333 0.00452726 0 0.0107879 0.00456952 0
-0.0107333 -0.00530001 0 0.0107879 -0.00525717 0 -0.0107333 0.00556386 0 0.0107879
0.00560606 0 -0.000743369 0.0122055 0 0.000743369 0.0122055 0 -0.00778421 -0.00948375
0 0.00781802 -0.00945713 0 -0.0122727 0.000733061 0 -0.0122727 -0.000758799 0
0.0123323 -0.000712262 0 0.0123323 0.0007795 0 0.00639053 -0.0105814 0 -0.00637208
-0.0105959 0 -0.00923755 -0.00833916 0 -0.0122727 0.00211968 0 0.00928347 -0.00830301
0 -0.0122727 -0.00236389 0 0.0123323 0.00216603 0 0.0123323 -0.00231725 0
-0.0107333 0.00652734 0 0.0107879 0.00656947 0 -0.005 -0.0116765 0 0.005
-0.0116765 0 -0.0122727 0.00340848 0 0.0123323 0.00345474 0 -0.000741126 0.0128136
0 0.000741126 0.0128136 0 -0.0107333 -0.00716117 0 0.0107879 -0.00711821 0
-0.00346908 -0.0124565 0 0.00346908 -0.0124565 0 -0.0122727 -0.00409081 0 0.0123323
-0.00404405 0 -0.0107333 0.00742284 0 -0.00177633 -0.0129455 0 0.00177633 -0.0129455
0 -0.0122727 0.00460636 0 -3.11279e-19 -0.013112 0 0.0107879 0.00746492 0
-0.002 0.013 0 0.002 0.013 0 0.0123323 0.00465255 0 -0.0007387
0.0134712 0 0.0007387 0.0134712 0 -0.0122727 0.00571974 0 0.0123323 0.00576585
0 -0.0122727 -0.00594879 0 0.0123323 -0.00590191 0 -0.002 0.0135849 0
0.002 0.0135849 0 -0.0138571 0.000479853 0 -0.00923755 -0.0103449 0 0.00928347
-0.0103086 0 0.00781802 -0.011466 0 -0.00778421 -0.0114927 0 -0.0138571 -0.00112242
0 0.0139177 0.000527252 0 0.0139177 -0.00107491 0 -0.0138571 0.0019691 0
-0.0122727 0.00675458 0 0.0139177 0.00201639 0 0.0123323 0.00680062 0 -0.0107333
-0.00916358 0 0.00639053 -0.0125934 0 0.0107879 -0.0091205 0 -0.00637208 -0.012608
0 -0.0138571 -0.0028463 0 0.0139177 -0.00279868 0 -0.000736077 0.0141824 0
0.000736077 0.0141824 0 -0.00319452 0.0138829 0 0.00320133 0.0138879 0 -0.0138571
0.00335328 0 0.0139177 0.00340049 0 -0.002 0.0142174 0 0.002 0.0142174
0 -0.0122727 0.00771641 0 0.0123323 0.00776239 0 -0.005 -0.0136916 0
0.005 -0.0136916 0 -0.0138571 0.00463982 0 -0.0122727 -0.0079478 0 -0.0138571
-0.00470103 0 0.0123323 -0.00790078 0 0.0139177 -0.00465328 0 0.0139177 0.00468694
0 -0.00319452 0.0144678 0 0.00320133 0.0144728 0 -0.00346175 -0.0144295 0
0.00346175 -0.0144295 0 -0.00073324 0.0149515 0 0.00073324 0.0149515 0 -0.0122727
0.00861039 0 -0.00177041 -0.0148921 0 0.00177041 -0.0148921 0 -0.002 0.0149014
0 0.002 0.0149014 0 -0.0138571 0.0058356 0 -2.94473e-19 -0.0150496 0
0.0123323 0.00865631 0 0.0139177 0.00588264 0 -0.0138571 -0.00669653 0 0.0139177
-0.00664864 0 -0.00319452 0.0151003 0 0.00320133 0.0151053 0 -0.0154877 0.000155282
0 -0.0138571 0.00694702 0 -0.00451419 0.0148583 0 0.0045263 0.0148673 0
0.00928347 -0.0124665 0 -0.00923755 -0.0125028 0 0.0155453 0.000200444 0 -0.0154877
-0.00156548 0 0.0139177 0.00699399 0 -0.0154877 0.00175466 0 -0.0107333 -0.011318
0 0.0107879 -0.0112748 0 0.0155453 -0.00152021 0 0.0155453 0.00179972 0
0.00781802 -0.0136273 0 -0.00778421 -0.0136541 0 -0.002 0.0156411 0 0.002
0.0156411 0 -0.000730172 0.0157833 0 0.000730172 0.0157833 0 -0.0154877 0.0032412
0 -0.0154877 -0.00341685 0 0.0155453 0.00328617 0 -0.0122727 -0.0100985 0
0.0155453 -0.00337146 0 0.0123323 -0.0100514 0 -0.0138571 0.00798004 0 0.0139177
0.00802694 0 0.00639053 -0.0147581 0 -0.00637208 -0.0147727 0 -0.00451419 0.0154432
0 0.0045263 0.0154521 0 -0.00319452 0.0157843 0 0.00320133 0.0157893 0
-0.0154877 0.00462288 0 0.0155453 0.00466776 0 -0.0154877 -0.00540874 0 -0.0138571
-0.00884348 0 0.0155453 -0.00536322 0 0.0139177 -0.00879545 0 -0.0138571 0.00894019
0 -0.002 0.0164411 0 0.002 0.0164411 0 0.0139177 0.00898702 0
-0.0154877 0.00590709 0 -0.005 -0.0158596 0 0.005 -0.0158596 0 0.0155453
0.00595189 0 -0.00451419 0.0160757 0 -0.000726854 0.0166828 0 0.000726854 0.0166828
0 0.0045263 0.0160846 0 -0.00319452 0.016524 0 0.00320133 0.016529 0
-0.00345386 -0.0165523 0 0.00345386 -0.0165523 0 -0.0138571 0.0098326 0 -0.00597213
0.0159359 0 0.00598764 0.0159474 0 -0.0154877 0.00710071 0 0.0139177 0.00987937
0 -0.00176404 -0.0169864 0 0.00176404 -0.0169864 0 0.0155453 0.00714543 0
-2.76391e-19 -0.0171343 0 -0.0171658 -0.000247278 0 0.0172162 -0.000207752 0 -0.0171658
0.00147028 0 -0.0154877 -0.0075518 0 0.0155453 -0.00750615 0 0.0172162 0.00150971
0 -0.0171658 -0.00209519 0 0.0172162 -0.00205556 0 0.0107879 -0.0135925 0
-0.0107333 -0.0136359 0 -0.00451419 0.0167597 0 0.0045263 0.0167686 0 -0.002
0.0173062 0 0.002 0.0173062 0 -0.0171658 0.00306667 0 -0.0122727 -0.0124125
0 0.00928347 -0.0147881 0 0.0123323 -0.0123652 0 -0.00923755 -0.0148246 0
0.0172162 0.00310601 0 -0.0154877 0.00821012 0 -0.00597213 0.0165208 0 0.00598764
0.0165323 0 0.0155453 0.00825477 0 -0.00319452 0.017324 0 0.00320133 0.017329
0 -0.0171658 -0.00408336 0 -0.000723266 0.0176555 0 0.000723266 0.0176555 0
0.0172162 -0.00404362 0 -0.0171658 0.00455044 0 0.00781802 -0.0159527 0 -0.00778421
-0.0159796 0 -0.0138571 -0.0111534 0 0.0139177 -0.0111052 0 0.0172162 0.0045897
0 -0.0154877 0.00924127 0 -0.00451419 0.0174994 0 0.0045263 0.0175084 0
0.0155453 0.00928585 0 -0.0171658 0.00592954 0 -0.00597213 0.0171533 0 0.00598764
0.0171648 0 0.0172162 0.00596872 0 0.00639053 -0.0170872 0 -0.00637208 -0.0171018
0 -0.0171658 -0.00622243 0 0.0172162 -0.00618257 0 -0.002 0.0182418 0
0.002 0.0182418 0 -0.0154877 -0.00985753 0 0.0155453 -0.00981172 0 -0.00319452
0.0181891 0 0.00320133 0.0181941 0 -0.0154877 0.0101997 0 0.0155453 0.0102442
0 -0.0171658 0.00721136 0 0.0172162 0.00725047 0 -0.000719385 0.0187075 0
0.000719385 0.0187075 0 -0.00758282 0.0171264 0 0.00759938 0.0171387 0 -0.00597213
0.0178373 0 0.00598764 0.0178488 0 -0.00451419 0.0182994 0 0.0045263 0.0183083
0 -0.005 -0.0181922 0 0.005 -0.0181922 0 -0.018893 -0.00073496 0
-0.018893 0.0011094 0 0.0189314 -0.000704684 0 0.0189314 0.0011396 0 -0.0154877
0.0110905 0 -0.018893 -0.0027193 0 -0.018893 0.00282365 0 -0.0171658 0.00840275
0 0.0189314 -0.00268894 0 0.0155453 0.0111349 0 0.0189314 0.00285377 0
-0.00344538 -0.0188361 0 0.00344538 -0.0188361 0 -0.0171658 -0.00852385 0 0.0172162
0.00844179 0 0.0172162 -0.00848386 0 -0.00758282 0.0177113 0 0.00759938 0.0177235
0 -0.0122727 -0.0149021 0 0.0123323 -0.0148546 0 -0.00175719 -0.0192397 0
[...]
CELL_DATA 15677
FIELD attributes 1
U 3 15677 float
-0.304884 10.2651 0 0.190489 10.9192 0 -0.101146 9.4464 0 0.0315686 10.9901
0 0.11887 10.7321 0 -0.011916 8.75763 0 0.0455447 11.0075 0
0.0145246 10.9813 0 0.0577483 10.4713 0 0.0115481 8.22798 0 0.0467175
11.0122 0 0.0434368 11.0309 0 0.0261502 10.928 0 0.031951 10.1895
0 0.0113429 7.85407 0 0.0440379 11.0135 0 0.0424757 11.0437 0
0.0428933 11.0204 0 0.0333193 10.8592 0 0.0214208 9.90088 0 0.00646355
7.60917 0 0.0414056 11.0135 0 0.040533 11.0461 0 0.0403257 11.0444
0 0.040015 11.0038 0 0.0329239 10.7673 0 0.016009 9.6347 0
0.00253201 7.45523 0 0.0386696 11.0131 0 0.0390937 11.0452 0 0.0395372
11.0528 0 0.0386699 11.0435 0 0.0359985 10.9808 0 0.0289638 10.6544
0 0.0122195 9.40873 0 0.000593734 7.35798 0 0.0356506 11.0123 0
0.0375048 11.0434 0 0.0389128 11.0555 0 0.0386676 11.0576 0 0.0362568
11.0404 0 0.0320128 10.9502 0 0.0241985 10.5291 0 0.00908335 9.2329
0 4.64951e-05 7.29504 0 0.0323758 11.0113 0 0.035621 11.041 0
0.0378726 11.0552 0 0.0381616 11.0629 0 0.0363862 11.0616 0 0.0331498
11.0339 0 0.028606 10.914 0 0.0196156 10.3936 0 0.00653142 9.10129
0 -0.000203626 7.25164 0 0.0289081 11.0101 0 0.0335198 11.0381 0
0.0365281 11.0535 0 0.0372832 11.0642 0 0.0358981 11.07 0 0.0332683
11.0638 0 0.0300783 11.0256 0 0.0256161 10.8716 0 0.015599 10.2639
0 0.00448646 9.00556 0 -0.000429839 7.22628 0 0.0253309 11.009 0
0.0312249 11.0347 0 0.0349315 11.0509 0 0.0361406 11.0633 0 0.0350682
11.0729 0 0.0327974 11.0759 0 0.0301147 11.0654 0 0.0271141 11.017
0 0.0224252 10.8253 0 0.0119907 10.1529 0 0.00275728 8.93871 0
-0.000635076 7.21377 0 0.0215922 11.0077 0 0.0287351 11.0311 0 0.0330767
11.0476 0 0.0347438 11.0612 0 0.0339633 11.0729 0 0.0319454 11.0808
0 0.029546 11.082 0 0.0269998 11.0682 0 0.0238504 11.0093 0
0.0187495 10.7784 0 0.00861473 10.0632 0 0.00119839 8.89567 0 -0.00104286
7.2148 0 0.01791 11.0065 0 0.0261994 11.0273 0 0.0309488 11.0438
0 0.0330785 11.0582 0 0.0325865 11.0714 0 0.0307695 11.0819 0
0.0285184 11.0891 0 0.0261797 11.0896 0 0.0235471 11.0733 0 0.0201932
11.0029 0 0.0146551 10.7338 0 0.00533086 9.99697 0 -0.000409771 8.87358
0 -0.00165285 7.22901 0 0.0147251 11.0053 0 0.0235564 11.0232 0
0.0285886 11.0394 0 0.0311287 11.0543 0 0.0309308 11.0686 0 0.0292867
11.081 0 0.0271045 11.0915 0 0.0248037 11.0991 0 0.0223303 11.0999
0 0.0195639 11.0814 0 0.0160391 10.9992 0 0.0102124 10.6969 0
0.00189977 9.95336 0 -0.00207674 8.87048 0 -0.00231335 7.25677 0 0.0121614
11.0043 0 0.0210638 11.0195 0 0.0260107 11.0346 0 0.0288838 11.0498
0 0.028982 11.0649 0 0.0274941 11.0787 0 0.0253315 11.0913 0
0.0229656 11.1028 0 0.0204484 11.1119 0 0.0177816 11.1136 0 0.0148675
11.0934 0 0.011185 10.9997 0 0.00536234 10.6707 0 -0.00166291 9.93146
0 -0.00394705 8.88562 0 -0.00312759 7.2982 0 0.0100381 11.0034 0
0.0188501 11.0162 0 0.0235165 11.0301 0 0.0263474 11.0447 0 0.0267217
11.0603 0 0.0253766 11.0752 0 0.0231989 11.0893 0 0.0206964 11.1034
0 0.018011 11.117 0 0.0152186 11.1282 0 0.0123473 11.1316 0
0.00927429 11.1103 0 0.00554054 11.0062 0 4.74188e-05 10.6578 0 -0.00549122
9.9302 0 -0.00601389 8.91794 0 -0.00403239 7.35351 0 0.0084149 11.0026
0 0.0168674 11.0134 0 0.0212663 11.0262 0 0.023816 11.0397 0
0.0241408 11.0549 0 0.0229149 11.0707 0 0.020693 11.0861 0 0.017996
11.1018 0 0.0150475 11.1182 0 0.0119828 11.1346 0 0.00890382 11.1489
0 0.00582755 11.1548 0 0.00267293 11.133 0 -0.000927354 11.0205 0
-0.00576087 10.6593 0 -0.00963748 9.94865 0 -0.00828922 8.96741 0 -0.00502017
7.42247 0 0.00705157 11.0021 0 0.0149876 11.011 0 0.0192002 11.0226
0 0.0214791 11.0352 0 0.0215247 11.0495 0 0.020096 11.0652 0
0.017796 11.0816 0 0.0148522 11.0987 0 0.0115554 11.1169 0 0.00810018
11.1365 0 0.00464031 11.1566 0 0.00127692 11.1748 0 -0.00193247 11.184
0 -0.00501422 11.1627 0 -0.00824358 11.044 0 -0.0121055 10.6766 0
-0.0141364 9.98586 0 -0.0107585 9.0332 0 -0.00607492 7.50493 0 0.00594194
11.0017 0 0.0133302 11.0092 0 0.0172715 11.0196 0 0.0192822 11.0311
0 0.0190823 11.0445 0 0.0172274 11.0594 0 0.0144966 11.076 0
0.011251 11.0942 0 0.0075222 11.1138 0 0.00356379 11.1355 0 -0.000419696
11.1591 0 -0.00427129 11.1837 0 -0.00784936 11.2067 0 -0.0110478 11.22
0 -0.0138463 11.2005 0 -0.0164347 11.0781 0 -0.019001 10.7099 0
-0.018986 10.0412 0 -0.0134148 9.11487 0 -0.00717712 7.60016 0 0.00503354
11.0013 0 0.0118444 11.0076 0 0.0155186 11.017 0 0.0172283 11.0275
0 0.0167698 11.0399 0 0.014546 11.054 0 0.0111535 11.0699 0
0.00718737 11.0883 0 0.00293681 11.1091 0 -0.00164222 11.1323 0 -0.00629081
11.1582 0 -0.0107989 11.1867 0 -0.0149707 11.2168 0 -0.018618 11.2454
0 -0.0216011 11.2638 0 -0.0238632 11.2472 0 -0.0255026 11.1238 0
-0.0264331 10.7595 0 -0.0241657 10.1137 0 -0.0162327 9.21162 0 -0.00833073
7.70756 0 0.00431422 11.0011 0 0.0105104 11.0064 0 0.0139173 11.0148
0 0.015329 11.0243 0 0.0146068 11.0357 0 0.0120118 11.0488 0
0.00804215 11.0639 0 0.00310485 11.0817 0 -0.00219638 11.1028 0 -0.00752699
11.1272 0 -0.012995 11.1548 0 -0.0183322 11.1858 0 -0.0232918 11.2201
0 -0.0276328 11.2566 0 -0.0311371 11.2916 0 -0.0336468 11.3161 0
-0.0350688 11.3036 0 -0.0354184 11.1817 0 -0.0343751 10.8251 0 -0.0296551
10.2026 0 -0.0191984 9.32274 0 -0.00951367 7.82636 0 0.00376309 11.0009
0 0.00936822 11.0054 0 0.0124628 11.0129 0 0.0135845 11.0215 0
0.0126051 11.0318 0 0.00965207 11.0439 0 0.00511851 11.0581 0 -0.000666952
11.0751 0 -0.0073128 11.0955 0 -0.0140757 11.1202 0 -0.0205413 11.1491
0 -0.0269028 11.182 0 -0.0328556 11.2192 0 -0.038109 11.2602 0
-0.0423932 11.3038 0 -0.0454793 11.3462 0 -0.0471964 11.3774 0 -0.0474285
11.3703 0 -0.0461216 11.2523 0 -0.0427843 10.9063 0 -0.0354162 10.307
0 -0.0222705 9.44712 0 -0.0106945 7.95537 0 0.00333603 11.0008 0
0.00843538 11.0047 0 0.0112027 11.0113 0 0.0119958 11.0191 0 0.0107741
11.0284 0 0.0074853 11.0394 0 0.00241735 11.0525 0 -0.00418322 11.0685
0 -0.012007 11.088 0 -0.0205632 11.112 0 -0.0289039 11.1412 0
-0.036522 11.1756 0 -0.0437076 11.2148 0 -0.0501127 11.259 0 -0.0554178
11.3076 0 -0.0593456 11.3591 0 -0.0616658 11.4095 0 -0.0622144 11.4484
0 -0.060871 11.4476 0 -0.0575322 11.3354 0 -0.0515966 11.0023 0
-0.0413761 10.4254 0 -0.0253989 9.58353 0 -0.0118599 8.09334 0 0.00299903
11.0007 0 0.00767455 11.0042 0 0.0101606 11.0101 0 0.0106209 11.017
0 0.00911896 11.0253 0 0.00552554 11.0352 0 -3.51299e-05 11.0472 0
-0.00740123 11.062 0 -0.0163506 11.0804 0 -0.0264822 11.1034 0 -0.0371524
11.1318 0 -0.0471526 11.1665 0 -0.0558644 11.2075 0 -0.0637079 11.2539
0 -0.0703068 11.3059 0 -0.0753359 11.3629 0 -0.0785246 11.4231 0
-0.0796655 11.4821 0 -0.0786193 11.5292 0 -0.0752835 11.5357 0 -0.0695309
11.431 0 -0.060704 11.1121 0 -0.0474754 10.5566 0 -0.0285456 9.7306
0 -0.012999 8.23894 0 0.00272877 11.0006 0 0.00704964 11.0037 0
0.00929976 11.0091 0 0.00949202 11.0152 0 0.00770442 11.0225 0 0.00378174
11.0314 0 -0.00221929 11.0422 0 -0.0102867 11.0557 0 -0.0202911 11.0727
0 -0.031927 11.0944 0 -0.0446484 11.1217 0 -0.0576095 11.1555 0
-0.0692781 11.1969 0 -0.0789213 11.2453 0 -0.08715 11.3 0 -0.0935851
11.3607 0 -0.0979145 11.4268 0 -0.0999022 11.4962 0 -0.0993862 11.5643
0 -0.0962819 11.62 0 -0.0905354 11.6344 0 -0.0819942 11.5384 0
-0.0699981 11.2346 0 -0.0536424 10.6993 0 -0.031675 9.88689 0 -0.0140914
8.39078 0 0.00250902 11.0005 0 0.00653273 11.0034 0 0.00858496 11.0083
0 0.00857264 11.0138 0 0.00656091 11.0203 0 0.00232398 11.0279 0
-0.00412147 11.0374 0 -0.0128133 11.0496 0 -0.0237846 11.0651 0 -0.0368324
11.0853 0 -0.0515152 11.1111 0 -0.0670893 11.1437 0 -0.082454 11.1839
0 -0.0956965 11.2329 0 -0.10599 11.2899 0 -0.114216 11.3537 0
-0.120018 11.4239 0 -0.123129 11.4997 0 -0.123379 11.5787 0 -0.120688
11.6561 0 -0.115042 11.7206 0 -0.106446 11.7433 0 -0.0947816 11.6568
0 -0.0793912 11.3683 0 -0.0597974 10.852 0 -0.0347482 10.0508 0
-0.0151253 8.54741 0 0.00232817 11.0005 0 0.00610223 11.0031 0 0.00798786
11.0076 0 0.00780269 11.0127 0 0.00564389 11.0184 0 0.00117837 11.025
0 -0.00566421 11.0331 0 -0.0149618 11.0437 0 -0.0267963 11.0577 0
-0.0411424 11.0761 0 -0.0576717 11.1001 0 -0.0757516 11.131 0 -0.0943848
11.1698 0 -0.112167 11.2176 0 -0.126763 11.2754 0 -0.137293 11.3419
0 -0.145002 11.4156 0 -0.149594 11.4959 0 -0.150884 11.5817 0
-0.148803 11.6706 0 -0.143373 11.7574 0 -0.134688 11.8308 0 -0.12283
11.8619 0 -0.107729 11.7854 0 -0.0887701 11.512 0 -0.0658656 11.0129
0 -0.0377324 10.2209 0 -0.016103 8.70743 0 0.00217778 11.0004 0
0.00574147 11.0028 0 0.00748639 11.0071 0 0.0071812 11.0117 0 0.00491852
11.0168 0 0.000290503 11.0226 0 -0.00682879 11.0294 0 -0.0166449 11.0383
0 -0.0292997 11.0504 0 -0.0448111 11.0669 0 -0.0630461 11.0888 0
-0.083495 11.1176 0 -0.105275 11.1546 0 -0.12708 11.2009 0 -0.147169
11.2574 0 -0.162757 11.3249 0 -0.17297 11.4019 0 -0.179518 11.4862
0 -0.182212 11.5771 0 -0.180995 11.6732 0 -0.175937 11.7719 0
-0.167199 11.868 0 -0.154984 11.9499 0 -0.139486 11.9894 0 -0.120684
11.9229 0 -0.0980233 11.664 0 -0.0717845 11.1807 0 -0.040607 10.3955
0 -0.0169407 8.86973 0 0.00205161 11.0004 0 0.00543736 11.0026 0
0.00706268 11.0066 0 0.00666594 11.0108 0 0.00432219 11.0154 0 -0.000392128
11.0205 0 -0.00768555 11.0263 0 -0.0178549 11.0336 0 -0.0311936 11.0436
0 -0.0478027 11.0577 0 -0.0675787 11.0774 0 -0.090228 11.1038 0
-0.114998 11.1385 0 -0.140694 11.1827 0 -0.16566 11.2376 0 -0.187804
11.3038 0 -0.203863 11.3821 0 -0.213037 11.4704 0 -0.217646 11.5658
0 -0.217663 11.6675 0 -0.213203 11.7739 0 -0.204506 11.8823 0
-0.19189 11.9873 0 -0.17569 12.0774 0 -0.156213 12.1248 0 -0.133503
12.068 0 -0.107051 11.8229 0 -0.077511 11.3534 0 -0.0433041 10.5733
0 -0.0182218 9.03156 0 0.00194493 11.0004 0 0.00517957 11.0025 0
0.00670277 11.0062 0 0.00623665 11.0101 0 0.00384427 11.0143 0 -0.000917399
11.0187 0 -0.00830275 11.0235 0 -0.018685 11.0295 0 -0.0324845 11.0376
0 -0.0499961 11.0492 0 -0.0712211 11.0661 0 -0.0958726 11.0898 0
-0.123437 11.1217 0 -0.152851 11.1632 0 -0.182561 11.2158 0 -0.210537
11.2804 0 -0.234298 11.3575 0 -0.25012 11.4475 0 -0.25739 11.5477
0 -0.259176 11.6546 0 -0.25567 11.7672 0 -0.247197 11.8837 0
-0.234195 12.0013 0 -0.217153 12.1147 0 -0.196554 12.2124 0 -0.172813
12.2672 0 -0.146044 12.2195 0 -0.115781 11.9871 0 -0.0829737 11.53
0 -0.0464443 10.7523 0 -0.019417 9.22211 0 0.00185411 11.0004 0
0.00495991 11.0023 0 0.00639561 11.0059 0 0.0058782 11.0095 0 0.00345846
11.0133 0 -0.00131666 11.0171 0 -0.00873486 11.0212 0 -0.0192232 11.026
0 -0.0332967 11.0323 0 -0.051415 11.0415 0 -0.073825 11.0552 0
-0.100364 11.0756 0 -0.130492 11.1043 0 -0.163405 11.1427 0 -0.197676
11.1924 0 -0.231356 11.2546 0 -0.261987 11.3301 0 -0.286744 11.419
0 -0.301453 11.5215 0 -0.305817 11.6341 0 -0.303806 11.7526 0
-0.295879 11.8759 0 -0.282607 12.0021 0 -0.264652 12.1284 0 -0.242684
12.2494 0 -0.217325 12.3539 0 -0.189098 12.4154 0 -0.158198 12.376
0 -0.124121 12.1553 0 -0.0885498 11.7082 0 -0.0491984 10.9522 0
-0.0197186 9.4178 0 0.00177628 11.0003 0 0.0047718 11.0022 0 0.00613233
11.0056 0 0.00557753 11.009 0 0.00314603 11.0125 0 -0.00161816 11.0158
0 -0.00902525 11.0191 0 -0.0195397 11.0229 0 -0.0337451 11.0278 0
-0.0522244 11.0348 0 -0.0754341 11.0455 0 -0.103518 11.062 0 -0.136076
11.0867 0 -0.172224 11.1215 0 -0.210821 11.1677 0 -0.250021 11.2267
0 -0.287419 11.2997 0 -0.320158 11.3872 0 -0.345096 11.4888 0
-0.357649 11.6045 0 -0.357985 11.7296 0 -0.351128 11.8597 0 -0.337859
11.9933 0 -0.31902 12.1287 0 -0.295508 12.2628 0 -0.268175 12.3906
0 -0.237765 12.5009 0 -0.204913 12.568 0 -0.16984 12.5362 0
-0.132271 12.3254 0 -0.0938326 11.9074 0 -0.0509738 11.1713 0 -0.0200949
9.609 0 0.00170915 11.0003 0 0.00460987 11.0021 0 0.00590581 11.0054
0 0.00532418 11.0086 0 0.0028924 11.0117 0 -0.00184352 11.0146 0
-0.00920807 11.0174 0 -0.0196902 11.0202 0 -0.0339213 11.0237 0 -0.0525741
11.0289 0 -0.0762643 11.0369 0 -0.105399 11.0497 0 -0.139956 11.0697
0 -0.179197 11.0998 0 -0.221829 11.1419 0 -0.266305 11.197 0
-0.3103 11.2667 0 -0.35096 11.3517 0 -0.385051 11.4522 0 -0.409156
11.5673 0 -0.418351 11.6965 0 -0.41344 11.8342 0 -0.400655 11.9755
0 -0.381131 12.1189 0 -0.356002 12.2626 0 -0.326397 12.4037 0
-0.293331 12.5371 0 -0.257669 12.6522 0 -0.220098 12.7242 0 -0.181039
12.6985 0 -0.140418 12.516 0 -0.0985064 12.1266 0 -0.0529131 11.3865
0 -0.0204969 9.79363 0 0.00165159 11.0003 0 0.00446956 11.002 0
0.00571009 11.0051 0 0.00510988 11.0082 0 0.00268601 11.0111 0 -0.00200974
11.0136 0 -0.00931006 11.0158 0 -0.0197186 11.0179 0 -0.0338977 11.0202
0 -0.0525838 11.0237 0 -0.0765101 11.0293 0 -0.106287 11.0388 0
-0.142219 11.0543 0 -0.184025 11.0787 0 -0.230551 11.1153 0 -0.279996
11.1659 0 -0.330349 11.2314 0 -0.378797 11.313 0 -0.422037 11.4112
0 -0.456493 11.5256 0 -0.47856 11.6547 0 -0.48307 11.7975 0
-0.471636 11.9477 0 -0.451838 12.0997 0 -0.42519 12.252 0 -0.393115
12.403 0 -0.356959 12.55 0 -0.317889 12.688 0 -0.276833 12.8069
0 -0.234609 12.8822 0 -0.192473 12.8804 0 -0.148117 12.7262 0
-0.102959 12.3426 0 -0.054769 11.5952 0 -0.0208263 9.97037 0 0.00434815
11.002 0 0.00158132 11.0003 0 0.00553956 11.005 0 0.00492787 11.0079
0 0.00251775 11.0105 0 -0.00213026 11.0128 0 -0.00935215 11.0145 0
-0.0196588 11.0158 0 -0.0337311 11.0171 0 -0.052348 11.0191 0 -0.0763271
11.0226 0 -0.106431 11.029 0 -0.14322 11.0405 0 -0.186815 11.0595
0 -0.236607 11.0893 0 -0.290902 11.1336 0 -0.347303 11.1942 0
-0.403322 11.2714 0 -0.455634 11.3663 0 -0.50052 11.4787 0 -0.534133
11.6077 0 -0.552796 11.7512 0 -0.551202 11.9076 0 -0.531948 12.0697
0 -0.504087 12.2315 0 -0.469515 12.3918 0 -0.429928 12.549 0
-0.386865 12.7007 0 -0.341594 12.8422 0 -0.295125 12.9633 0 -0.249628
13.0595 0 -0.203618 13.0813 0 -0.155101 12.9337 0 -0.106973 12.553
0 -0.0563434 11.7959 0 -0.021065 10.1387 0 0.00538965 11.0048 0
0.00420197 11.0019 0 0.00149548 11.0003 0 0.00477164 11.0076 0 0.0023804
11.0101 0 -0.00221538 11.012 0 -0.00935059 11.0133 0 -0.0195372 11.014
0 -0.0334652 11.0144 0 -0.0519402 11.015 0 -0.0758377 11.0166 0
-0.106032 11.0204 0 -0.143277 11.0282 0 -0.188014 11.0422 0 -0.240119
11.0656 0 -0.298533 11.102 0 -0.360911 11.1554 0 -0.424207 11.2274
0 -0.485424 11.3177 0 -0.540744 11.4271 0 -0.58609 11.5546 0
-0.617456 11.6988 0 -0.631216 11.8567 0 -0.622043 12.0263 0 -0.593696
12.1995 0 -0.556792 12.3702 0 -0.513593 12.5373 0 -0.466038 12.6996
0 -0.415803 12.8548 0 -0.364243 12.9983 0 -0.314205 13.139 0
-0.264545 13.2552 0 -0.213619 13.2797 0 -0.161321 13.1362 0 -0.110391
12.7559 0 -0.0576269 11.9878 0 -0.0212074 10.2983 0 0.00463357 11.0073
0 0.00522053 11.0046 0 0.00401463 11.0018 0 0.00141321 11.0002 4.20161e-19
0.0022669 11.0097 0 -0.00227298 11.0113 0 -0.00931757 11.0123 0 -0.019374
11.0124 0 -0.0331338 11.0121 0 -0.0514172 11.0115 0 -0.0751375 11.0114
0 -0.105247 11.0128 0 -0.142645 11.0172 0 -0.188018 11.0267 0
-0.241635 11.0441 0 -0.303018 11.0729 0 -0.370548 11.1172 0 -0.441134
11.1813 0 -0.511001 11.2661 0 -0.576663 11.371 0 -0.633858 11.4959
0 -0.678246 11.6393 0 -0.705787 11.7988 0 -0.713055 11.971 0
-0.694824 12.1531 0 -0.656174 12.3366 0 -0.609348 12.515 0 -0.556936
12.6877 0 -0.501065 12.8537 0 -0.443507 13.0109 0 -0.387987 13.1736
0 -0.333402 13.3329 0 -0.277897 13.4486 0 -0.222516 13.4736 0
-0.16667 13.332 0 -0.113238 12.9506 0 -0.0586387 12.1702 0 -0.0212565
10.4488 0 0.00216433 11.0093 0 0.0044955 11.007 0 0.00501147 11.0044
1.83933e-18 0.00383321 11.0017 -1.33023e-18 0.00133388 11.0002 -8.52704e-19 -0.00231048 11.0108 0
-0.00926184 11.0114 0 -0.0191841 11.0111 0 -0.0327624 11.01 0 -0.0508224
11.0084 0 -0.0742998 11.0068 0 -0.1042 11.0061 0 -0.141526 11.0075
0 -0.187151 11.013 0 -0.241652 11.0249 0 -0.305024 11.0466 0
-0.376331 11.082 0 -0.453303 11.1356 0 -0.531966 11.2118 0 -0.607787
11.3111 0 -0.676845 11.4319 0 -0.734511 11.5732 0 -0.776311 11.733
0 -0.798316 11.9079 0 -0.797456 12.0938 0 -0.76873 12.2876 0
-0.718669 12.4801 0 -0.661173 12.6649 0 -0.59909 12.8418 0 -0.534677
13.0101 0 -0.472655 13.1864 0 -0.412087 13.3673 0 -0.350629 13.5247
0 -0.289763 13.6378 0 -0.230226 13.6614 0 -0.171175 13.5201 0
-0.115562 13.1363 0 -0.0594057 12.343 0 -0.021225 10.5901 0 -0.00234796
11.0102 0 0.00209877 11.0088 -3.72386e-18 0.0043388 11.0066 -1.9366e-18 0.00481069 11.0041
9.33724e-19 0.00365602 11.0016 -8.99561e-19 0.00125758 11.0002 0 -0.00919111 11.0106 0
-0.0189775 11.0098 0 -0.0323697 11.0081 0 -0.0501887 11.0056 0 -0.0733805
11.0027 0 -0.102984 11.0001 0 -0.140077 10.9989 0 -0.185668 11.0007
0 -0.24057 11.0077 0 -0.305157 11.0229 0 -0.37906 11.05 0
-0.4608 11.0933 0 -0.547301 11.1578 0 -0.633619 11.2478 0 -0.714463
11.3631 0 -0.785564 11.5008 0 -0.842046 11.6594 0 -0.879443 11.8357
0 -0.894115 12.0258 0 -0.883498 12.2246 0 -0.842928 12.429 0
-0.78049 12.6291 0 -0.711722 12.8189 0 -0.639647 12.9985 0 -0.570158
13.1861 0 -0.502434 13.3806 0 -0.433791 13.5589 0 -0.365954 13.7124
0 -0.300093 13.8213 0 -0.236771 13.842 0 -0.1749 13.6998 0
-0.117408 13.3127 0 -0.0599588 12.5059 0 -0.0211271 10.7224 0 -0.00913561
11.0099 0 -0.0022942 11.0096 7.84e-18 0.00206568 11.0083 0 0.0041883 11.0062
1.9648e-18 0.00461602 11.0039 5.35596e-22 0.0034826 11.0015 0 0.00118426 11.0002 0
-0.0187621 11.0088 0 -0.0319675 11.0065 0 -0.0495396 11.0032 0 -0.0724221
10.9991 0 -0.101673 10.9949 0 -0.138418 10.9913 0 -0.183766 10.9898
0 -0.238708 10.9924 0 -0.303913 11.0017 0 -0.379469 11.0211 0
-0.464565 11.0548 0 -0.557025 11.1076 0 -0.652869 11.1846 0 -0.7461
11.2901 0 -0.830709 11.4227 0 -0.902211 11.5784 0 -0.955626 11.7547
0 -0.986677 11.9475 0 -0.992177 12.1521 0 -0.970225 12.3629 0
-0.916591 12.5764 0 -0.840981 12.7827 0 -0.760502 12.9758 0 -0.682603
13.1751 0 -0.606585 13.381 0 -0.529357 13.5728 0 -0.453129 13.7466
0 -0.379354 13.8945 0 -0.308914 13.9979 0 -0.242235 14.0148 0
-0.177911 13.8708 0 -0.11883 13.4794 0 -0.0603288 12.659 0 -0.0209758
10.8457 0 -0.0185825 11.0078 0 -0.00891334 11.009 6.86721e-22 -0.00212192 11.0089
0 0.00203519 11.0077 -2.06788e-18 0.00404582 11.0059 3.89458e-22 0.0044269 11.0037 0
0.00331306 11.0014 0 0.00111394 11.0002 0 -0.0315638 11.0051 0 -0.0488892
11.0011 0 -0.0714546 10.996 0 -0.10032 10.9902 0 -0.136643 10.9846
0 -0.181601 10.9802 0 -0.236316 10.9788 0 -0.301684 10.9827 0
-0.378159 10.9951 0 -0.465476 11.0199 0 -0.562233 11.0616 0 -0.665452
11.1255 0 -0.770142 11.2167 0 -0.869204 11.3393 0 -0.95599 11.4905
0 -1.02598 11.665 0 -1.07426 11.8592 0 -1.09694 12.0682 0
-1.09146 12.2863 0 -1.05669 12.5078 0 -0.988932 12.729 0 -0.899533
12.9397 0 -0.812334 13.1532 0 -0.726886 13.3712 0 -0.639651 13.5743
0 -0.553404 13.7612 0 -0.470095 13.9289 0 -0.390872 14.07 0
-0.316329 14.1671 0 -0.246712 14.1793 0 -0.180283 14.0326 0 -0.119879
13.6365 0 -0.0605425 12.8024 0 -0.0207822 10.9605 0 -0.0312233 11.0038
0 -0.0181321 11.0067 -4.33627e-18 -0.00844392 11.0081 0 -0.00195384 11.0082 0
0.00201697 11.0072 6.29047e-18 0.00391096 11.0055 0 0.00424356 11.0034 0 0.00314751
11.0013 1.87441e-18 0.00104663 11.0002 0 -0.0482458 10.9992 0 -0.0704952 10.9931
0 -0.0989646 10.9861 0 -0.13482 10.9786 0 -0.179288 10.9716 0
-0.233586 10.9667 0 -0.298781 10.9659 0 -0.375612 10.9719 0 -0.464256
10.9884 0 -0.563958 11.0198 0 -0.672616 11.0712 0 -0.78634 11.1479
0 -0.899042 11.2551 0 -1.0025 11.3963 0 -1.08956 11.5673 0
-1.15588 11.761 0 -1.19684 11.973 0 -1.20911 12.1974 0 -1.1909
12.4279 0 -1.14199 12.6586 0 -1.05922 12.8855 0 -0.961952 13.1176
0 -0.86595 13.3504 0 -0.767221 13.5658 0 -0.669265 13.764 0
-0.574576 13.9444 0 -0.484748 14.1047 0 -0.400623 14.2383 0 -0.322459
14.3284 0 -0.250301 14.3353 0 -0.182091 14.1853 0 -0.120606 13.784
0 -0.0606253 12.9364 0 -0.020557 11.0672 0 -0.0477018 10.9975 0
-0.0304704 11.0024 0 -0.01725 11.0055 -4.7392e-18 -0.00799084 11.0072 -4.5732e-18 -0.00176738
11.0075 -8.82052e-18 0.00201097 11.0067 0 0.00378375 11.0052 -4.09442e-18 0.00406625 11.0032
-3.94361e-18 0.00298591 11.0012 1.89817e-18 0.000982165 11.0001 0 -0.0695523 10.9907 0
-0.0976269 10.9825 0 -0.133 10.9733 0 -0.176918 10.9641 0 -0.230668
10.956 0 -0.295445 10.9508 0 -0.372209 10.9512 0 -0.461488 10.9602
0 -0.563058 10.9821 0 -0.675565 11.0217 0 -0.796097 11.0843 0
-0.919748 11.1756 0 -1.03927 11.3006 0 -1.14533 11.4617 0 -1.23046