#           x             T
    -0.118946       317.887
    -0.118121       321.607
    -0.117174       323.954
    -0.116087       324.821
    -0.114839       324.848
    -0.113407       324.479
    -0.111763       323.893
    -0.109877       323.137
    -0.107712       322.199
    -0.105226       321.031
    -0.102373       319.564
   -0.0990994       317.712
   -0.0953416        315.42
   -0.0914285       312.856
    -0.087619       310.241
   -0.0838095       307.648
        -0.08       305.175
   -0.0761904        302.97
   -0.0723809       301.262
   -0.0685714        300.38
   -0.0649271       300.475
    -0.061624       301.186
   -0.0586549       301.993
   -0.0559862       302.592
   -0.0535874       302.919
   -0.0514312       303.024
   -0.0494932       302.978
   -0.0477512       302.841
   -0.0461853       302.657
   -0.0447779       302.458
   -0.0435128       302.267
   -0.0423757       302.096
   -0.0413536       301.954
   -0.0404349       301.838
     -0.03925       301.714
     -0.03775       301.558
     -0.03625       301.379
     -0.03475       301.184
     -0.03325       300.976
     -0.03175       300.759
     -0.03025       300.535
     -0.02875       300.308
     -0.02725        300.08
     -0.02575       299.862
   -0.0243993       299.661
   -0.0231362       299.475
    -0.021743       299.286
   -0.0202065       299.113
   -0.0185118       298.934
   -0.0171075       298.784
   -0.0161272       298.677
   -0.0145812       298.509
    -0.012414       298.263
   -0.0103452       298.051
  -0.00847254       297.878
  -0.00711441       297.758
  -0.00630907        297.69
  -0.00524316       297.605
  -0.00385435       297.507
  -0.00259726       297.435
  -0.00133333       297.388
            0       297.369
   0.00133333       297.378
   0.00260066       297.421
   0.00386381        297.49
   0.00525697       297.584
   0.00631696       297.665
   0.00712283       297.731
    0.0084882       297.848
    0.0103573       298.015
    0.0124188        298.22
    0.0145859       298.459
    0.0161321       298.622
     0.017115       298.725
    0.0185274       298.871
    0.0202225       299.042
    0.0217568       299.209
    0.0231456       299.391
    0.0244027       299.569
      0.02575       299.763
      0.02725       299.974
      0.02875       300.194
      0.03025       300.412
      0.03175       300.627
      0.03325       300.835
      0.03475       301.033
      0.03625       301.218
      0.03775       301.388
      0.03925       301.536
    0.0404349       301.656
    0.0413536        301.77
    0.0423757       301.911
    0.0435128       302.081
    0.0447779       302.272
    0.0461853       302.472
    0.0477511       302.658
    0.0494932         302.8
    0.0514312       302.854
    0.0535874       302.763
    0.0559862       302.457
    0.0586549       301.889
     0.061624       301.121
    0.0649271       300.453
    0.0685714       300.393
    0.0723809       301.297
    0.0761904       303.015
         0.08       305.225
    0.0838095         307.7
     0.087619       310.294
    0.0914285       312.909
    0.0953419       315.474
    0.0991002       317.768
     0.102374       319.622
     0.105227       321.091
     0.107713       322.261
     0.109878       323.201
     0.111765       323.958
     0.113408       324.544
      0.11484       324.911
     0.116088       324.878
     0.117175       324.001
     0.118122       321.645
     0.118947       317.927
     0.119665       314.781
