# vtk DataFile Version 2.0
sampleSurface
ASCII
DATASET POLYDATA
POINTS 15978 float
-4.26165e-19 0.000133477 0 -4.18079e-19 -0.000798814 0 -4.33681e-19 0.001 0 -4.09379e-19 -0.00180187
0 -0.00181681 0.000361473 0 0.00181681 0.000361473 0 -0.00181396 -0.000575145 0
0.00181396 -0.000575145 0 -0.00181945 0.00123202 0 0.00181945 0.00123202 0 -0.00181089
-0.00158285 0 0.00181089 -0.00158285 0 -4.00018e-19 -0.00288105 0 -0.00180759 -0.00266704
0 0.00180759 -0.00266704 0 -0.00351565 8.15481e-05 0 0.00351565 8.15481e-05 0
-0.00351186 -0.000939823 0 0.00351186 -0.000939823 0 -0.00351918 0.00103087 0 0.00351918
0.00103087 0 -0.00352245 0.00191322 0 0.00352245 0.00191322 0 -3.89947e-19 -0.00404214
0 -0.00350777 -0.00203871 0 0.00350777 -0.00203871 0 -0.00180405 -0.00383352 0
0.00180405 -0.00383352 0 -0.00350338 -0.00322101 0 0.00350338 -0.00322101 0 -0.005
8.60602e-05 0 0.005 8.60602e-05 0 -0.005 -0.00103629 0 0.005 -0.00103629
0 -0.005 0.00112923 0 0.005 0.00112923 0 -3.79112e-19 -0.00529135 0
-0.00180023 -0.00508853 0 0.00180023 -0.00508853 0 -0.005 0.00209882 0 0.005
0.00209882 0 -0.005 -0.00224382 0 0.005 -0.00224382 0 -0.00349866 -0.00449304
0 0.00349866 -0.00449304 0 -0.005 0.003 0 0.005 0.003 0
-0.005 -0.003543 0 0.005 -0.003543 0 -0.00637208 2.82617e-05 0 0.00639053
4.25732e-05 0 -0.00637208 0.00114892 0 -0.00637208 -0.00117745 0 0.00639053 -0.00116311
0 0.00639053 0.00116321 0 -3.67455e-19 -0.00663538 0 -0.00179612 -0.00643879 0
0.00179612 -0.00643879 0 -0.00637208 0.00219052 0 0.00639053 0.00220479 0 -0.00349357
-0.00586162 0 0.00349357 -0.00586162 0 -0.00637208 -0.00247467 0 0.00639053 -0.00246031
0 -0.005 -0.00494079 0 0.005 -0.00494079 0 -0.00637208 0.00315864 0
0.00639053 0.00317289 0 -0.00637208 -0.00387036 0 0.00639053 -0.00385597 0 -0.00637208
0.00405846 0 0.00639053 0.00407269 0 -0.00778421 -7.99569e-05 0 0.00781802 -5.3679e-05
0 -0.00778421 0.00112388 0 0.00781802 0.00115011 0 -0.00778421 -0.00137517 0
0.00781802 -0.00134884 0 -3.54912e-19 -0.00808142 0 -0.0017917 -0.00789154 0 0.0017917
-0.00789154 0 -0.00778421 0.0022428 0 -0.0034881 -0.00733407 0 0.0034881 -0.00733407
0 0.00781802 0.00226899 0 -0.005 -0.00644467 0 0.005 -0.00644467 0
-0.00778421 -0.00276868 0 0.00781802 -0.0027423 0 -0.00637208 -0.00537197 0 0.00639053
-0.00535755 0 -0.00778421 0.00328278 0 0.00781802 0.00330893 0 -0.00778421 0.00424939
0 -0.00778421 -0.00426796 0 0.00781802 -0.00424152 0 0.00781802 0.00427551 0
-0.00923755 -0.000243565 0 0.00928347 -0.000207818 0 -0.00923755 0.00104957 0 -0.00778421
0.00514782 0 0.00928347 0.00108525 0 0.00781802 0.0051739 0 -0.00923755 -0.00163485
0 0.00928347 -0.00159903 0 -0.00637208 -0.00698755 0 0.00639053 -0.0069731 0
-0.005 -0.0080627 0 0.005 -0.0080627 0 -0.00923755 0.00225148 0 0.00928347
0.0022871 0 -0.00348222 -0.00891827 0 0.00348222 -0.00891827 0 -0.00178695 -0.00945455
0 0.00178695 -0.00945455 0 -3.41418e-19 -0.00963721 0 -0.00923755 -0.00313172 0
-0.00778421 -0.00588103 0 0.00781802 -0.00585453 0 0.00928347 -0.00309583 0 -0.00923755
0.0033686 0 0.00928347 0.00340416 0 -0.00923755 0.00440692 0 0.00928347 0.00444243
0 -0.00923755 -0.00474221 0 0.00928347 -0.00470623 0 -0.00923755 0.00537198 0
-0.0107333 -0.000467921 0 0.00928347 0.00540745 0 -0.0107333 0.000921062 0 0.0107879
-0.000425364 0 0.00639053 -0.00871127 0 -0.00637208 -0.00872575 0 0.0107879 0.000963535
0 -0.00778421 -0.00761653 0 0.00781802 -0.00758997 0 -0.0107333 -0.00196233 0
0.0107879 -0.00191968 0 -0.0107333 0.00221206 0 -0.005 -0.00980352 0 0.005
-0.00980352 0 0.0107879 0.00225445 0 -0.00923755 0.00626897 0 -0.00347589 -0.0106227
0 0.00347589 -0.0106227 0 0.00928347 0.00630439 0 -0.0107333 0.00341198 0
-0.00178183 -0.0111362 0 0.00178183 -0.0111362 0 -0.00923755 -0.00647493 0 0.00928347
-0.00643887 0 -3.26899e-19 -0.0113111 0 -0.0107333 -0.00357015 0 0.0107879 0.00345431
0 0.0107879 -0.00352741 0 -0.0107333 0.00452726 0 0.0107879 0.00456952 0
-0.0107333 -0.00530001 0 0.0107879 -0.00525717 0 -0.0107333 0.00556386 0 0.0107879
0.00560606 0 -0.000743369 0.0122055 0 0.000743369 0.0122055 0 -0.00778421 -0.00948375
0 0.00781802 -0.00945713 0 -0.0122727 0.000733061 0 -0.0122727 -0.000758799 0
0.0123323 -0.000712262 0 0.0123323 0.0007795 0 0.00639053 -0.0105814 0 -0.00637208
-0.0105959 0 -0.00923755 -0.00833916 0 -0.0122727 0.00211968 0 0.00928347 -0.00830301
0 -0.0122727 -0.00236389 0 0.0123323 0.00216603 0 0.0123323 -0.00231725 0
-0.0107333 0.00652734 0 0.0107879 0.00656947 0 -0.005 -0.0116765 0 0.005
-0.0116765 0 -0.0122727 0.00340848 0 0.0123323 0.00345474 0 -0.000741126 0.0128136
0 0.000741126 0.0128136 0 -0.0107333 -0.00716117 0 0.0107879 -0.00711821 0
-0.00346908 -0.0124565 0 0.00346908 -0.0124565 0 -0.0122727 -0.00409081 0 0.0123323
-0.00404405 0 -0.0107333 0.00742284 0 -0.00177633 -0.0129455 0 0.00177633 -0.0129455
0 -0.0122727 0.00460636 0 -3.11279e-19 -0.013112 0 0.0107879 0.00746492 0
-0.002 0.013 0 0.002 0.013 0 0.0123323 0.00465255 0 -0.0007387
0.0134712 0 0.0007387 0.0134712 0 -0.0122727 0.00571974 0 0.0123323 0.00576585
0 -0.0122727 -0.00594879 0 0.0123323 -0.00590191 0 -0.002 0.0135849 0
0.002 0.0135849 0 -0.0138571 0.000479853 0 -0.00923755 -0.0103449 0 0.00928347
-0.0103086 0 0.00781802 -0.011466 0 -0.00778421 -0.0114927 0 -0.0138571 -0.00112242
0 0.0139177 0.000527252 0 0.0139177 -0.00107491 0 -0.0138571 0.0019691 0
-0.0122727 0.00675458 0 0.0139177 0.00201639 0 0.0123323 0.00680062 0 -0.0107333
-0.00916358 0 0.00639053 -0.0125934 0 0.0107879 -0.0091205 0 -0.00637208 -0.012608
0 -0.0138571 -0.0028463 0 0.0139177 -0.00279868 0 -0.000736077 0.0141824 0
0.000736077 0.0141824 0 -0.00319452 0.0138829 0 0.00320133 0.0138879 0 -0.0138571
0.00335328 0 0.0139177 0.00340049 0 -0.002 0.0142174 0 0.002 0.0142174
0 -0.0122727 0.00771641 0 0.0123323 0.00776239 0 -0.005 -0.0136916 0
0.005 -0.0136916 0 -0.0138571 0.00463982 0 -0.0122727 -0.0079478 0 -0.0138571
-0.00470103 0 0.0123323 -0.00790078 0 0.0139177 -0.00465328 0 0.0139177 0.00468694
0 -0.00319452 0.0144678 0 0.00320133 0.0144728 0 -0.00346175 -0.0144295 0
0.00346175 -0.0144295 0 -0.00073324 0.0149515 0 0.00073324 0.0149515 0 -0.0122727
0.00861039 0 -0.00177041 -0.0148921 0 0.00177041 -0.0148921 0 -0.002 0.0149014
0 0.002 0.0149014 0 -0.0138571 0.0058356 0 -2.94473e-19 -0.0150496 0
0.0123323 0.00865631 0 0.0139177 0.00588264 0 -0.0138571 -0.00669653 0 0.0139177
-0.00664864 0 -0.00319452 0.0151003 0 0.00320133 0.0151053 0 -0.0154877 0.000155282
0 -0.0138571 0.00694702 0 -0.00451419 0.0148583 0 0.0045263 0.0148673 0
0.00928347 -0.0124665 0 -0.00923755 -0.0125028 0 0.0155453 0.000200444 0 -0.0154877
-0.00156548 0 0.0139177 0.00699399 0 -0.0154877 0.00175466 0 -0.0107333 -0.011318
0 0.0107879 -0.0112748 0 0.0155453 -0.00152021 0 0.0155453 0.00179972 0
0.00781802 -0.0136273 0 -0.00778421 -0.0136541 0 -0.002 0.0156411 0 0.002
0.0156411 0 -0.000730172 0.0157833 0 0.000730172 0.0157833 0 -0.0154877 0.0032412
0 -0.0154877 -0.00341685 0 0.0155453 0.00328617 0 -0.0122727 -0.0100985 0
0.0155453 -0.00337146 0 0.0123323 -0.0100514 0 -0.0138571 0.00798004 0 0.0139177
0.00802694 0 0.00639053 -0.0147581 0 -0.00637208 -0.0147727 0 -0.00451419 0.0154432
0 0.0045263 0.0154521 0 -0.00319452 0.0157843 0 0.00320133 0.0157893 0
-0.0154877 0.00462288 0 0.0155453 0.00466776 0 -0.0154877 -0.00540874 0 -0.0138571
-0.00884348 0 0.0155453 -0.00536322 0 0.0139177 -0.00879545 0 -0.0138571 0.00894019
0 -0.002 0.0164411 0 0.002 0.0164411 0 0.0139177 0.00898702 0
-0.0154877 0.00590709 0 -0.005 -0.0158596 0 0.005 -0.0158596 0 0.0155453
0.00595189 0 -0.00451419 0.0160757 0 -0.000726854 0.0166828 0 0.000726854 0.0166828
0 0.0045263 0.0160846 0 -0.00319452 0.016524 0 0.00320133 0.016529 0
-0.00345386 -0.0165523 0 0.00345386 -0.0165523 0 -0.0138571 0.0098326 0 -0.00597213
0.0159359 0 0.00598764 0.0159474 0 -0.0154877 0.00710071 0 0.0139177 0.00987937
0 -0.00176404 -0.0169864 0 0.00176404 -0.0169864 0 0.0155453 0.00714543 0
-2.76391e-19 -0.0171343 0 -0.0171658 -0.000247278 0 0.0172162 -0.000207752 0 -0.0171658
0.00147028 0 -0.0154877 -0.0075518 0 0.0155453 -0.00750615 0 0.0172162 0.00150971
0 -0.0171658 -0.00209519 0 0.0172162 -0.00205556 0 0.0107879 -0.0135925 0
-0.0107333 -0.0136359 0 -0.00451419 0.0167597 0 0.0045263 0.0167686 0 -0.002
0.0173062 0 0.002 0.0173062 0 -0.0171658 0.00306667 0 -0.0122727 -0.0124125
0 0.00928347 -0.0147881 0 0.0123323 -0.0123652 0 -0.00923755 -0.0148246 0
0.0172162 0.00310601 0 -0.0154877 0.00821012 0 -0.00597213 0.0165208 0 0.00598764
0.0165323 0 0.0155453 0.00825477 0 -0.00319452 0.017324 0 0.00320133 0.017329
0 -0.0171658 -0.00408336 0 -0.000723266 0.0176555 0 0.000723266 0.0176555 0
0.0172162 -0.00404362 0 -0.0171658 0.00455044 0 0.00781802 -0.0159527 0 -0.00778421
-0.0159796 0 -0.0138571 -0.0111534 0 0.0139177 -0.0111052 0 0.0172162 0.0045897
0 -0.0154877 0.00924127 0 -0.00451419 0.0174994 0 0.0045263 0.0175084 0
0.0155453 0.00928585 0 -0.0171658 0.00592954 0 -0.00597213 0.0171533 0 0.00598764
0.0171648 0 0.0172162 0.00596872 0 0.00639053 -0.0170872 0 -0.00637208 -0.0171018
0 -0.0171658 -0.00622243 0 0.0172162 -0.00618257 0 -0.002 0.0182418 0
0.002 0.0182418 0 -0.0154877 -0.00985753 0 0.0155453 -0.00981172 0 -0.00319452
0.0181891 0 0.00320133 0.0181941 0 -0.0154877 0.0101997 0 0.0155453 0.0102442
0 -0.0171658 0.00721136 0 0.0172162 0.00725047 0 -0.000719385 0.0187075 0
0.000719385 0.0187075 0 -0.00758282 0.0171264 0 0.00759938 0.0171387 0 -0.00597213
0.0178373 0 0.00598764 0.0178488 0 -0.00451419 0.0182994 0 0.0045263 0.0183083
0 -0.005 -0.0181922 0 0.005 -0.0181922 0 -0.018893 -0.00073496 0
-0.018893 0.0011094 0 0.0189314 -0.000704684 0 0.0189314 0.0011396 0 -0.0154877
0.0110905 0 -0.018893 -0.0027193 0 -0.018893 0.00282365 0 -0.0171658 0.00840275
0 0.0189314 -0.00268894 0 0.0155453 0.0111349 0 0.0189314 0.00285377 0
-0.00344538 -0.0188361 0 0.00344538 -0.0188361 0 -0.0171658 -0.00852385 0 0.0172162
0.00844179 0 0.0172162 -0.00848386 0 -0.00758282 0.0177113 0 0.00759938 0.0177235
0 -0.0122727 -0.0149021 0 0.0123323 -0.0148546 0 -0.00175719 -0.0192397 0
[...]
CELL_DATA 15677
FIELD attributes 1
U 3 15677 float
-0.304871 10.2652 0 0.190476 10.9192 0 -0.101144 9.44667 0 0.0315569 10.9901
0 0.118845 10.7323 0 -0.0119272 8.75836 0 0.0455281 11.0075 0
0.0144842 10.9815 0 0.057713 10.4719 0 0.0115304 8.22934 0 0.0466955
11.0122 0 0.0433907 11.0311 0 0.026093 10.9286 0 0.0319076 10.1908
0 0.0113233 7.85613 0 0.0440127 11.0135 0 0.0424063 11.0439 0
0.0428081 11.0209 0 0.0332377 10.8603 0 0.021371 9.90294 0 0.00644145
7.61196 0 0.041378 11.0136 0 0.0404477 11.0462 0 0.0402097 11.0448
0 0.0398947 11.0049 0 0.0328238 10.7692 0 0.0159524 9.63762 0
0.00250512 7.45879 0 0.0386375 11.0131 0 0.0389909 11.0453 0 0.0393855
11.0533 0 0.0385046 11.0445 0 0.0358518 10.9826 0 0.0288592 10.6571
0 0.0121629 9.4125 0 0.000562877 7.36229 0 0.0356125 11.0123 0
0.0373756 11.0435 0 0.0387171 11.056 0 0.0384528 11.0587 0 0.0360547
11.0421 0 0.0318438 10.9528 0 0.0240805 10.5327 0 0.00902214 9.23752
0 1.63417e-05 7.30017 0 0.0323312 11.0113 0 0.035466 11.0411 0
0.0376283 11.0557 0 0.0378928 11.064 0 0.0361239 11.0634 0 0.0329207
11.0364 0 0.028423 10.9174 0 0.0194901 10.3981 0 0.00646047 9.10678
0 -0.000237552 7.2576 0 0.0288558 11.0101 0 0.0333353 11.0382 0
0.0362313 11.054 0 0.0369477 11.0652 0 0.0355656 11.0717 0 0.0329687
11.0663 0 0.0298248 11.029 0 0.0254175 10.8759 0 0.0154642 10.2695
0 0.00440616 9.01193 0 -0.000468258 7.23313 0 0.0252639 11.0089 0
0.0310066 11.0348 0 0.0345749 11.0514 0 0.0357302 11.0644 0 0.0346571
11.0746 0 0.0324166 11.0785 0 0.0297818 11.0688 0 0.0268369 11.0213
0 0.0222114 10.8306 0 0.0118428 10.1594 0 0.0026654 8.94603 0
-0.000672095 7.22161 0 0.021551 11.0077 0 0.0284853 11.0312 0 0.0326514
11.0481 0 0.0342477 11.0623 0 0.0334596 11.0747 0 0.0314721 11.0833
0 0.029122 11.0853 0 0.0266351 11.0725 0 0.0235494 11.0145 0
0.0185158 10.7847 0 0.00844786 10.0706 0 0.00109955 8.904 0 -0.00108797
7.22363 0 0.0178453 11.0065 0 0.0258769 11.0273 0 0.0304468 11.0442
0 0.0324841 11.0592 0 0.0319773 11.0731 0 0.0301896 11.0844 0
0.0279903 11.0924 0 0.0257143 11.0938 0 0.0231494 11.0785 0 0.0198626
11.0091 0 0.014395 10.7411 0 0.00513887 10.0054 0 -0.000544078 8.88305
0 -0.00170877 7.23894 0 0.0146491 11.0053 0 0.0231922 11.0233 0
0.0279881 11.0398 0 0.0304218 11.0554 0 0.0302012 11.0703 0 0.0285851
11.0835 0 0.0264572 11.0948 0 0.0242231 11.1033 0 0.0218217 11.105
0 0.0191264 11.0875 0 0.0156716 11.0063 0 0.0099187 10.7053 0
0.0016643 9.96295 0 -0.00221493 8.88117 0 -0.00237596 7.26791 0 0.0120691
11.0043 0 0.0206481 11.0196 0 0.0253109 11.0351 0 0.0280474 11.0508
0 0.0281152 11.0666 0 0.0266538 11.0811 0 0.0245482 11.0946 0
0.0222535 11.107 0 0.0198132 11.117 0 0.0172224 11.1197 0 0.0143816
11.1005 0 0.0107727 11.0079 0 0.00503047 10.6802 0 -0.0019172 9.94226
0 -0.00410502 8.89762 0 -0.00320263 7.31067 0 0.00991525 11.0034 0
0.0183832 11.0164 0 0.0227111 11.0306 0 0.0253662 11.0457 0 0.0256994
11.062 0 0.0243788 11.0776 0 0.0222608 11.0926 0 0.0198344 11.1075
0 0.0172311 11.122 0 0.0145201 11.1343 0 0.0117269 11.1387 0
0.0087298 11.1184 0 0.00507346 11.0155 0 -0.000333212 10.6684 0 -0.00578273
9.94232 0 -0.00619446 8.93138 0 -0.00411983 7.36742 0 0.00824552 11.0027
0 0.0163606 11.0136 0 0.0203615 11.0266 0 0.0226883 11.0407 0
0.0229431 11.0566 0 0.021739 11.0731 0 0.0195791 11.0893 0 0.0169633
11.1059 0 0.0141027 11.1232 0 0.0111252 11.1406 0 0.00812964 11.1559
0 0.00513365 11.1629 0 0.0020585 11.1422 0 -0.00146162 11.031 0
-0.00620113 10.6713 0 -0.00997255 9.9622 0 -0.00849504 8.98238 0 -0.00511778
7.43795 0 0.0068616 11.0021 0 0.0144587 11.0112 0 0.0182 11.0231
0 0.020215 11.0362 0 0.0201497 11.0511 0 0.0187195 11.0675 0
0.0164836 11.0848 0 0.0136258 11.1028 0 0.010423 11.1219 0 0.00706117
11.1425 0 0.00369039 11.1636 0 0.000412124 11.1828 0 -0.00271427 11.1931
0 -0.00571401 11.1731 0 -0.00885365 11.0558 0 -0.012611 10.6899 0
-0.0145196 10.0009 0 -0.0109914 9.04984 0 -0.00618374 7.52206 0 0.0057249
11.0017 0 0.0127711 11.0093 0 0.0161828 11.0201 0 0.0178877 11.0321
0 0.0175408 11.0461 0 0.0156478 11.0617 0 0.0129605 11.0791 0
0.00980546 11.0982 0 0.00617669 11.1188 0 0.0023182 11.1414 0 -0.00157012
11.166 0 -0.00533148 11.1917 0 -0.00882322 11.2158 0 -0.011936 11.2303
0 -0.0146438 11.2121 0 -0.0171313 11.0912 0 -0.0195777 10.7247 0
-0.0194207 10.0579 0 -0.0136765 9.13328 0 -0.00729935 7.61907 0 0.00479176
11.0014 0 0.0112499 11.0078 0 0.0143275 11.0174 0 0.0157089 11.0285
0 0.0150679 11.0414 0 0.0127745 11.0562 0 0.00939039 11.0729 0
0.00549495 11.0922 0 0.00135017 11.114 0 -0.00312251 11.1382 0 -0.00766963
11.165 0 -0.012082 11.1946 0 -0.0161629 11.2259 0 -0.0197211 11.2556
0 -0.0226113 11.2753 0 -0.0247725 11.2601 0 -0.0262957 11.1384 0
-0.027087 10.7759 0 -0.0246565 10.1322 0 -0.0165267 9.23192 0 -0.00846539
7.72835 0 0.00405129 11.0011 0 0.00988249 11.0066 0 0.0126373 11.0152
0 0.0136851 11.0252 0 0.0127492 11.0372 0 0.0100547 11.051 0
0.00606377 11.0669 0 0.00116101 11.0855 0 -0.00405503 11.1076 0 -0.00927311
11.133 0 -0.0146334 11.1616 0 -0.0198694 11.1937 0 -0.0247331 11.2292
0 -0.0289807 11.2668 0 -0.0323891 11.3031 0 -0.034796 11.3289 0
-0.0361028 11.3179 0 -0.0363173 11.1978 0 -0.0351126 10.8432 0 -0.0302071
10.223 0 -0.0195269 9.34505 0 -0.00966124 7.84913 0 0.00348337 11.001
0 0.00871617 11.0056 0 0.0110986 11.0133 0 0.0118234 11.0224 0
0.0105964 11.0333 0 0.0075152 11.0461 0 0.00293128 11.061 0 -0.00284976
11.0788 0 -0.00944895 11.1002 0 -0.0161219 11.1259 0 -0.022474 11.1558
0 -0.0287288 11.1898 0 -0.034581 11.2281 0 -0.0397367 11.2703 0
-0.0439212 11.3152 0 -0.0469012 11.3589 0 -0.0485011 11.3917 0 -0.0485995
11.3861 0 -0.047136 11.27 0 -0.0436128 10.9263 0 -0.036033 10.3294
0 -0.0226356 9.47155 0 -0.0108565 7.98021 0 0.0030431 11.0008 0
0.0077615 11.0048 0 0.00975498 11.0117 0 0.0101224 11.0199 0 0.00861906
11.0298 0 0.00517468 11.0415 0 2.78665e-05 11.0553 0 -0.00659847 11.0721
0 -0.0144072 11.0926 0 -0.0229157 11.1175 0 -0.0311687 11.1478 0
-0.0386754 11.1833 0 -0.0457559 11.2237 0 -0.0520592 11.269 0 -0.0572608
11.3189 0 -0.0610787 11.3718 0 -0.0632782 11.4237 0 -0.0636908 11.4641
0 -0.0621918 11.4651 0 -0.0586713 11.3549 0 -0.0525225 11.0242 0
-0.0420624 10.4498 0 -0.0258035 9.61017 0 -0.0120377 8.12036 0 0.0026956
11.0007 0 0.00697653 11.0043 0 0.00863791 11.0105 0 0.0086439 11.0178
0 0.00682187 11.0266 0 0.00304684 11.0372 0 -0.00261992 11.0499 0
-0.0100418 11.0655 0 -0.0190081 11.0848 0 -0.0291265 11.1088 0 -0.0397565
11.1382 0 -0.0496757 11.1741 0 -0.0582789 11.2162 0 -0.066017 11.2639
0 -0.0725087 11.3172 0 -0.0774241 11.3756 0 -0.0804881 11.4372 0
-0.0814888 11.4978 0 -0.0802839 11.5465 0 -0.0767669 11.5549 0 -0.0708042
11.4523 0 -0.0617339 11.136 0 -0.0482375 10.5833 0 -0.0289931 9.75957
0 -0.0131935 8.26823 0 0.00241701 11.0006 0 0.00632848 11.0038 0
0.00771516 11.0095 0 0.00742492 11.016 0 0.00527603 11.0238 0 0.00114082
11.0333 0 -0.00499244 11.0448 0 -0.0131449 11.0591 0 -0.0231983 11.077
0 -0.0348555 11.0997 0 -0.0475754 11.128 0 -0.0605099 11.1629 0
-0.0721058 11.2054 0 -0.0816414 11.2551 0 -0.0897601 11.3111 0 -0.0960781
11.3733 0 -0.100279 11.4408 0 -0.102121 11.5118 0 -0.101441 11.5815
0 -0.0981513 11.639 0 -0.0921941 11.6554 0 -0.0834121 11.5617 0
-0.0711404 11.2606 0 -0.0544859 10.7283 0 -0.0321685 9.91829 0 -0.0143035
8.42245 0 0.00219061 11.0006 0 0.00578928 11.0035 0 0.00694697 11.0086
0 0.00642523 11.0146 0 0.00401872 11.0215 0 -0.000466174 11.0298 0
-0.00707568 11.0399 0 -0.015881 11.0528 0 -0.0269329 11.0693 0 -0.0400368
11.0903 0 -0.0547568 11.1172 0 -0.0703486 11.1508 0 -0.0857031 11.1923
0 -0.0988802 11.2425 0 -0.109063 11.3009 0 -0.117169 11.3661 0
-0.122838 11.4378 0 -0.125799 11.5151 0 -0.125879 11.5958 0 -0.122995
11.675 0 -0.117133 11.7414 0 -0.108294 11.7662 0 -0.0963548 11.6822
0 -0.0806546 11.3967 0 -0.060728 10.8834 0 -0.0352911 10.0848 0
-0.0153563 8.58154 0 0.00200446 11.0005 0 0.00533774 11.0032 0 0.00630369
11.008 0 0.00560159 11.0134 0 0.00300397 11.0196 0 -0.00174138 11.0268
0 -0.00878448 11.0355 0 -0.0182305 11.0468 0 -0.0301765 11.0617 0
-0.0446132 11.0809 0 -0.0612184 11.106 0 -0.0793602 11.1379 0 -0.0980345
11.178 0 -0.115823 11.227 0 -0.130357 11.2861 0 -0.140767 11.3541
0 -0.148341 11.4293 0 -0.152779 11.5113 0 -0.153892 11.5987 0
-0.15161 11.6894 0 -0.145955 11.7781 0 -0.137018 11.8535 0 -0.124881
11.8868 0 -0.109469 11.813 0 -0.0901629 11.5427 0 -0.0668895 11.0469
0 -0.038328 10.2575 0 -0.0163539 8.74413 0 0.00184983 11.0004 0
0.00495724 11.0029 0 0.00576186 11.0074 0 0.00492033 11.0124 0 0.00218387
11.0179 0 -0.00274082 11.0243 0 -0.0100933 11.0318 0 -0.0200973 11.0413
0 -0.0329019 11.0542 0 -0.0485379 11.0716 0 -0.0668873 11.0945 0
-0.087442 11.1244 0 -0.109314 11.1625 0 -0.131184 11.2101 0 -0.151293
11.2679 0 -0.166818 11.3369 0 -0.176895 11.4154 0 -0.183286 11.5014
0 -0.185797 11.5939 0 -0.184371 11.6918 0 -0.179078 11.7924 0
-0.170077 11.8905 0 -0.157571 11.9746 0 -0.141756 12.0165 0 -0.122603
11.9527 0 -0.0995543 11.6971 0 -0.0729083 11.2172 0 -0.041259 10.4348
0 -0.017212 8.90908 0 0.00172025 11.0004 0 0.00463473 11.0027 0
0.00530285 11.007 0 0.00435453 11.0115 0 0.00151992 11.0166 0 -0.0035212
11.0221 0 -0.0110744 11.0285 0 -0.0214664 11.0365 0 -0.0349983 11.0472
0 -0.0517743 11.0623 0 -0.0717026 11.0829 0 -0.0945013 11.1104 0
-0.119414 11.1461 0 -0.145234 11.1916 0 -0.170288 11.2478 0 -0.192461
11.3155 0 -0.208448 11.3954 0 -0.217464 11.4853 0 -0.221885 11.5825
0 -0.221686 11.686 0 -0.216979 11.7943 0 -0.208007 11.9047 0
-0.195087 12.0118 0 -0.178555 12.1042 0 -0.158716 12.1541 0 -0.135612
12.1002 0 -0.108729 11.8586 0 -0.0787411 11.3927 0 -0.0440156 10.6155
0 -0.018525 9.07362 0 0.00161083 11.0004 0 0.00435984 11.0026 0
0.00491164 11.0066 0 0.00388271 11.0108 0 0.000981201 11.0154 0 -0.00412822
11.0202 0 -0.0117987 11.0257 0 -0.0224335 11.0323 0 -0.0364644 11.0411
0 -0.0541907 11.0535 0 -0.075615 11.0713 0 -0.100459 11.0961 0
-0.128215 11.129 0 -0.157811 11.1718 0 -0.187676 11.2257 0 -0.215758
11.2918 0 -0.239553 11.3704 0 -0.255288 11.4622 0 -0.262369 11.5641
0 -0.263933 11.6729 0 -0.26017 11.7874 0 -0.251407 11.9059 0
-0.238086 12.0257 0 -0.220694 12.1413 0 -0.199715 12.2414 0 -0.175566
12.2988 0 -0.148357 12.2542 0 -0.117616 12.0254 0 -0.084317 11.572
0 -0.0472298 10.7973 0 -0.0197536 9.26749 0 0.00151776 11.0003 0
0.00412433 11.0024 0 0.00457828 11.0063 0 0.00348752 11.0102 0 0.000543052
11.0144 0 -0.00459847 11.0186 0 -0.0123232 11.0232 0 -0.0230898 11.0287
0 -0.0374271 11.0357 0 -0.055802 11.0457 0 -0.0784644 11.0602 0
-0.105249 11.0816 0 -0.135617 11.1114 0 -0.168769 11.151 0 -0.203261
11.202 0 -0.237122 11.2656 0 -0.267873 11.3427 0 -0.292662 11.4333
0 -0.307262 11.5376 0 -0.311402 11.652 0 -0.309125 11.7726 0
-0.300897 11.8979 0 -0.287287 12.0263 0 -0.268961 12.1548 0 -0.246594
12.2782 0 -0.220803 12.3852 0 -0.192117 12.4494 0 -0.160727 12.4133
0 -0.126123 12.1963 0 -0.09002 11.7531 0 -0.0500594 11.0005 0
-0.020077 9.46672 0 0.00143804 11.0003 0 0.00392173 11.0023 0 0.00429121
11.006 0 0.00315498 11.0097 0 0.000185753 11.0135 0 -0.0049611 11.0173
0 -0.0126934 11.0211 0 -0.0235083 11.0255 0 -0.0380051 11.031 0
-0.0567764 11.0388 0 -0.0802849 11.0503 0 -0.108673 11.0677 0 -0.141532
11.0935 0 -0.177975 11.1295 0 -0.216857 11.1769 0 -0.256313 11.2374
0 -0.293916 11.3119 0 -0.326783 11.4011 0 -0.351744 11.5045 0
-0.36416 11.6221 0 -0.364228 11.7493 0 -0.357057 11.8814 0 -0.343434
12.0173 0 -0.324204 12.1549 0 -0.300268 12.2914 0 -0.272478 12.4216
0 -0.241581 12.5346 0 -0.208214 12.6046 0 -0.172599 12.5761 0
-0.134453 12.3692 0 -0.0954411 11.9556 0 -0.0519045 11.2234 0 -0.0204799
9.66154 0 0.00136922 11.0003 0 0.00374685 11.0022 0 0.004043 11.0057
0 0.00287527 11.0092 0 -0.000106489 11.0127 0 -0.00523925 11.0161 0
-0.0129453 11.0193 0 -0.0237471 11.0227 0 -0.038293 11.0269 0 -0.0572678
11.0327 0 -0.0812959 11.0415 0 -0.110787 11.0552 0 -0.145711 11.0762
0 -0.185314 11.1074 0 -0.228295 11.1508 0 -0.2731 11.2073 0
-0.317383 11.2785 0 -0.358266 11.3652 0 -0.392488 11.4674 0 -0.416601
11.5845 0 -0.425625 11.7157 0 -0.420395 11.8557 0 -0.407243 11.9992
0 -0.387308 12.1449 0 -0.361728 12.2909 0 -0.331637 12.4345 0
-0.298054 12.5706 0 -0.261844 12.6884 0 -0.223698 12.7633 0 -0.18404
12.7411 0 -0.142804 12.563 0 -0.100262 12.1785 0 -0.0539251 11.4424
0 -0.0209115 9.84984 0 0.00130995 11.0003 0 0.00359514 11.0021 0
0.00382871 11.0055 0 0.0026383 11.0088 0 -0.000346138 11.0121 0 -0.00545129
11.015 0 -0.0131073 11.0177 0 -0.0238521 11.0203 0 -0.0383661 11.0232
0 -0.0573995 11.0273 0 -0.0816966 11.0337 0 -0.111874 11.044 0
-0.148231 11.0605 0 -0.190474 11.086 0 -0.237425 11.1238 0 -0.28727
11.1757 0 -0.337992 11.2427 0 -0.386755 11.326 0 -0.430231 11.426
0 -0.464814 11.5423 0 -0.486871 11.6735 0 -0.49117 11.8185 0
-0.479361 11.971 0 -0.459134 12.1253 0 -0.432011 12.2801 0 -0.39942
12.4336 0 -0.362711 12.5832 0 -0.323056 12.7239 0 -0.281386 12.8456
0 -0.238524 12.924 0 -0.195755 12.9262 0 -0.150729 12.7768 0
-0.104875 12.3983 0 -0.0558683 11.6551 0 -0.0212712 10.0303 0 0.00346246
11.0021 0 0.00123826 11.0003 0 0.00364206 11.0053 0 0.00243655 11.0085
0 -0.000543178 11.0115 0 -0.00561172 11.0141 0 -0.0132017 11.0163 0
-0.0238588 11.0181 0 -0.0382832 11.02 0 -0.0572688 11.0226 0 -0.0816464
11.0268 0 -0.112187 11.0341 0 -0.149451 11.0464 0 -0.193548 11.0664
0 -0.243848 11.0974 0 -0.298629 11.143 0 -0.355478 11.205 0
-0.411902 11.2839 0 -0.464552 11.3805 0 -0.50968 11.4949 0 -0.543414
11.6259 0 -0.562043 11.7716 0 -0.560192 11.9303 0 -0.540501 12.0949
0 -0.512144 12.2592 0 -0.477026 12.422 0 -0.43685 12.5819 0
-0.393161 12.7363 0 -0.347232 12.8806 0 -0.300076 13.0047 0 -0.253909
13.1044 0 -0.207216 13.1306 0 -0.15795 12.988 0 -0.109053 12.6125
0 -0.0575311 11.8597 0 -0.0215402 10.2023 0 0.00347659 11.0052 0
0.0033065 11.002 0 0.00115148 11.0002 0 0.00226319 11.0082 0 -0.000705572
11.011 0 -0.00573168 11.0133 0 -0.0132457 11.015 0 -0.0237952 11.0163
0 -0.03809 11.0172 0 -0.0569518 11.0185 0 -0.0812713 11.0207 0
-0.111933 11.0253 0 -0.149694 11.0338 0 -0.194988 11.0488 0 -0.247674
11.0733 0 -0.306667 11.1109 0 -0.369588 11.1658 0 -0.433376 11.2393
0 -0.495028 11.3314 0 -0.550703 11.4426 0 -0.596296 11.5722 0
-0.627772 11.7185 0 -0.641471 11.8787 0 -0.631991 12.0508 0 -0.603137
12.2267 0 -0.565664 12.4 0 -0.52184 12.5699 0 -0.473615 12.7349
0 -0.422673 12.8929 0 -0.370375 13.0393 0 -0.319622 13.1834 0
-0.269242 13.3036 0 -0.217542 13.3326 0 -0.164413 13.1942 0 -0.112639
12.8193 0 -0.0589026 12.0555 0 -0.0217111 10.3656 0 0.00210895 11.0079
0 0.00329464 11.005 0 0.00310929 11.0019 0 0.0010683 11.0002 4.29255e-19
-0.000841169 11.0105 0 -0.00581977 11.0126 0 -0.0132526 11.014 0 -0.0236825
11.0146 0 -0.0378217 11.0148 0 -0.0565074 11.0148 0 -0.0806694 11.0153
0 -0.111273 11.0175 0 -0.149221 11.0227 0 -0.195198 11.0331 0
-0.249458 11.0515 0 -0.3115 11.0814 0 -0.379676 11.1271 0 -0.450858
11.1926 0 -0.521254 11.2792 0 -0.587377 11.3859 0 -0.644941 11.5128
0 -0.689578 11.6584 0 -0.717217 11.8202 0 -0.724393 11.9948 0
-0.705799 12.1796 0 -0.666566 12.3659 0 -0.619088 12.5471 0 -0.565965
12.7226 0 -0.509335 12.8915 0 -0.450979 13.0516 0 -0.394696 13.2177
0 -0.33935 13.3808 0 -0.283022 13.5006 0 -0.226774 13.5302 0
-0.170008 13.3938 0 -0.115653 13.0179 0 -0.060001 12.2419 0 -0.0217874
10.5197 0 -0.000964663 11.0102 0 0.00195749 11.0076 0 0.00307917 11.0047
1.87928e-18 0.00291815 11.0017 -1.35908e-18 0.00098828 11.0002 -8.71167e-19 -0.00588432 11.012 0
-0.0132317 11.013 0 -0.0235367 11.0132 0 -0.0375053 11.0126 0 -0.0559808
11.0116 0 -0.0799166 11.0106 0 -0.110332 11.0105 0 -0.148238 11.0127
0 -0.194506 11.019 0 -0.249701 11.0319 0 -0.3138 11.0547 0
-0.385843 11.0914 0 -0.463524 11.1464 0 -0.542828 11.2242 0 -0.619212
11.3253 0 -0.688754 11.448 0 -0.746802 11.5915 0 -0.78885 11.7536
0 -0.810939 11.9309 0 -0.809954 12.1195 0 -0.780804 12.3161 0
-0.730076 12.5115 0 -0.671836 12.6993 0 -0.608945 12.8792 0 -0.543675
13.0505 0 -0.480834 13.2302 0 -0.419459 13.4148 0 -0.357123 13.5761
0 -0.295328 13.6934 0 -0.234823 13.7216 0 -0.17476 13.5856 0
-0.11814 13.2074 0 -0.0608525 12.4185 0 -0.0217817 10.6646 0 -0.00594741
11.0115 0 -0.00104749 11.0097 -3.80432e-18 0.0017897 11.0071 -1.97875e-18 0.00286955 11.0044
9.5403e-19 0.00273034 11.0016 -9.19054e-19 0.000911473 11.0002 0 -0.013192 11.0122 0
-0.0233687 11.0119 0 -0.0371605 11.0107 0 -0.0554062 11.0087 0 -0.0790707
11.0064 0 -0.109209 11.0044 0 -0.146905 11.0039 0 -0.193171 11.0065
0 -0.248811 11.0144 0 -0.314184 11.0307 0 -0.388897 11.0589 0
-0.471442 11.1036 0 -0.558707 11.1696 0 -0.645708 11.2613 0 -0.727146
11.3785 0 -0.798753 11.5183 0 -0.855628 11.6791 0 -0.893275 11.8579
0 -0.908014 12.0505 0 -0.897236 12.2522 0 -0.856174 12.4595 0
-0.792976 12.6628 0 -0.723362 12.8557 0 -0.650371 13.0384 0 -0.580008
13.2294 0 -0.511425 13.4277 0 -0.441844 13.6099 0 -0.373008 13.7674
0 -0.306101 13.8805 0 -0.241707 13.9059 0 -0.178727 13.7691 0
-0.120146 13.3876 0 -0.061487 12.5852 0 -0.0217083 10.8004 0 -0.0131659
11.0114 0 -0.00591516 11.0108 8.00684e-18 -0.00109646 11.0091 0 0.00162874 11.0067
2.00755e-18 0.00266702 11.0042 5.84668e-22 0.00254645 11.0015 0 0.000837866 11.0002 0
-0.0231875 11.0108 0 -0.0368 11.009 0 -0.0548085 11.0062 0 -0.0781759
11.0027 0 -0.107977 10.999 0 -0.145347 10.9962 0 -0.191397 10.9954
0 -0.247113 10.9989 0 -0.313151 11.0091 0 -0.38958 11.0296 0
-0.475562 11.0645 0 -0.568892 11.1187 0 -0.66555 11.1974 0 -0.759503
11.3047 0 -0.844735 11.4393 0 -0.916764 11.5972 0 -0.970586 11.7759
0 -1.00189 11.9713 0 -1.00744 12.1786 0 -0.985286 12.3924 0
-0.931084 12.609 0 -0.85461 12.8187 0 -0.773169 13.0151 0 -0.694348
13.2179 0 -0.617419 13.4277 0 -0.539185 13.6234 0 -0.461878 13.8012
0 -0.386973 13.9531 0 -0.315366 14.0608 0 -0.247504 14.0824 0
-0.181976 13.9437 0 -0.121723 13.5581 0 -0.061935 12.742 0 -0.0215798
10.9272 0 -0.0230408 11.0098 0 -0.0129676 11.0106 5.05274e-22 -0.00576423 11.01
0 -0.00114332 11.0085 -2.11263e-18 0.00147671 11.0063 4.18099e-22 0.00247174 11.004 0
0.00236651 11.0014 0 0.000767449 11.0001 0 -0.0364334 11.0075 0 -0.0542029
11.004 0 -0.0772635 10.9994 0 -0.106693 10.9943 0 -0.143657 10.9893
0 -0.189341 10.9856 0 -0.244861 10.985 0 -0.311103 10.9898 0
-0.388503 11.0033 0 -0.476775 11.0292 0 -0.574487 11.0722 0 -0.678632
11.1376 0 -0.784183 11.2305 0 -0.884004 11.355 0 -0.971443 11.5084
0 -1.04198 11.6852 0 -1.09069 11.8819 0 -1.11363 12.0936 0
-1.10817 12.3147 0 -1.07316 12.5393 0 -1.00475 12.7638 0 -0.914364
12.978 0 -0.826208 13.1952 0 -0.739809 13.4173 0 -0.6515 13.6244
0 -0.564088 13.8154 0 -0.479549 13.987 0 -0.399056 14.1322 0
-0.323218 14.2336 0 -0.252307 14.2505 0 -0.184577 14.1092 0 -0.122921
13.7188 0 -0.0622227 12.8891 0 -0.0214074 11.0453 0 -0.0361289 11.0062
0 -0.0226154 11.0087 -4.42802e-18 -0.0125224 11.0096 0 -0.00561798 11.0092 0
-0.00117692 11.0079 6.42653e-18 0.00133348 11.006 0 0.00228355 11.0037 0 0.0021907
11.0013 1.9151e-18 0.000700227 11.0001 0 -0.0535992 11.002 0 -0.0763518 10.9965
0 -0.105396 10.99 0 -0.141909 10.9832 0 -0.187123 10.9769 0
-0.242252 10.9727 0 -0.308354 10.9727 0 -0.386154 10.9797 0 -0.475809
10.9973 0 -0.576539 11.0299 0 -0.686215 11.0826 0 -0.800917 11.1609
0 -0.914524 11.2699 0 -1.01878 11.4131 0 -1.10652 11.5863 0
-1.17342 11.7826 0 -1.21483 11.9972 0 -1.22735 12.2244 0 -1.20916
12.4582 0 -1.15995 12.6922 0 -1.07643 12.9227 0 -0.978198 13.1586
0 -0.881221 13.3957 0 -0.781361 13.6153 0 -0.682152 13.8176 0
-0.586127 14.0021 0 -0.494907 14.1664 0 -0.409365 14.3041 0 -0.329776
14.3985 0 -0.256212 14.4101 0 -0.186604 14.2655 0 -0.123789 13.87
0 -0.0623754 13.0266 0 -0.0212016 11.1551 0 -0.0530944 11.0003 0
-0.035401 11.0047 0 -0.0217585 11.0074 -4.83914e-18 -0.0120939 11.0086 -4.67008e-18 -0.00545239
11.0085 -9.00821e-18 -0.00119714 11.0074 0 0.00119916 11.0056 -4.18364e-18 0.00210266 11.0035
-4.02947e-18 0.00201896 11.0013 1.93938e-18 0.000636061 11.0001 0 -0.0754515 10.994 0
-0.10411 10.9863 0 -0.140153 10.9777 0 -0.184834 10.9691 0 -0.239437
10.9617 0 -0.30515 10.9574 0 -0.38292 10.9586 0 -0.473258 10.9687
0 -0.575916 10.9917 0 -0.689516 11.0326 0 -0.811123 11.0967 0