#           x             T
    -0.118947        349.92
    -0.118121       349.915
    -0.117174       349.908
    -0.116087       349.902
     -0.11484       349.897
    -0.113408       349.894
    -0.111764       349.892
    -0.109877        349.89
    -0.107712       349.889
    -0.105227       349.888
    -0.102374       349.887
   -0.0990995       349.887
   -0.0953416       349.888
   -0.0914285       349.892
   -0.0876191         349.9
   -0.0838095       349.915
        -0.08       349.946
   -0.0761904       350.005
   -0.0723809       350.121
   -0.0685715       350.343
   -0.0649271       350.741
    -0.061624       351.395
    -0.058655       352.392
   -0.0559862       353.808
   -0.0535874       355.667
   -0.0514313       357.919
   -0.0494932       360.445
   -0.0477512       363.092
   -0.0461853        365.72
   -0.0447779       368.225
   -0.0435128       370.544
   -0.0423757       372.645
   -0.0413536       374.524
   -0.0404349       376.312
     -0.03925        378.41
     -0.03775       380.808
     -0.03625       383.116
     -0.03475       385.205
     -0.03325       387.066
     -0.03175       388.707
     -0.03025       390.142
     -0.02875       391.384
     -0.02725       392.453
     -0.02575       393.365
   -0.0243994       394.101
   -0.0231362        394.68
    -0.021743       395.213
   -0.0202065       395.735
   -0.0189203       396.091
   -0.0180315         396.3
   -0.0166427       396.573
   -0.0145812       396.881
    -0.012414       397.099
   -0.0110231        397.19
   -0.0100402       397.236
  -0.00847254       397.282
  -0.00677747       397.294
  -0.00524316        397.27
  -0.00385435       397.233
  -0.00288618         397.2
  -0.00228892       397.174
  -0.00133333       397.136
            0       397.086
   0.00133333       397.036
     0.002289       397.001
   0.00288966       396.983
   0.00386381       396.961
   0.00525697       396.944
   0.00679351       396.944
    0.0084882       396.974
    0.0100473       397.035
    0.0110276       397.083
    0.0124188       397.169
    0.0145859       397.332
    0.0166548       397.562
    0.0180384       397.732
    0.0189282       397.845
    0.0202225        398.01
    0.0217568       398.202
    0.0231456       398.367
    0.0244027       398.505
      0.02575       398.632
      0.02725       398.751
      0.02875       398.854
      0.03025       398.942
      0.03175       399.016
      0.03325        399.08
      0.03475       399.131
      0.03625       399.169
      0.03775       399.183
      0.03925       399.159
    0.0404349       399.084
    0.0413536       398.946
    0.0423757       398.675
    0.0435128       398.132
    0.0447779       397.064
    0.0461853       395.048
    0.0477511       391.532
    0.0494932       386.118
    0.0514312       379.062
    0.0535874       371.411
    0.0559862       364.399
    0.0586549       358.813
     0.061624       354.904
    0.0649271       352.485
    0.0685714       351.136
    0.0723809       350.458
    0.0761904       350.138
         0.08       349.988
    0.0838095       349.918
     0.087619       349.885
    0.0914285       349.871
    0.0953419       349.865
    0.0991002       349.863
     0.102374       349.863
     0.105227       349.864
     0.107713       349.866
     0.109878       349.867
     0.111765       349.869
     0.113408       349.872
      0.11484       349.875
     0.116088        349.88
     0.117175       349.886
     0.118122       349.893
     0.118947       349.899
     0.119665       349.903
