# vtk DataFile Version 2.0
sampleSurface
ASCII
DATASET POLYDATA
POINTS 15978 float
-4.26165e-19 0.000133477 0 -4.18079e-19 -0.000798814 0 -4.33681e-19 0.001 0 -4.09379e-19 -0.00180187
0 -0.00181681 0.000361473 0 0.00181681 0.000361473 0 -0.00181396 -0.000575145 0
0.00181396 -0.000575145 0 -0.00181945 0.00123202 0 0.00181945 0.00123202 0 -0.00181089
-0.00158285 0 0.00181089 -0.00158285 0 -4.00018e-19 -0.00288105 0 -0.00180759 -0.00266704
0 0.00180759 -0.00266704 0 -0.00351565 8.15481e-05 0 0.00351565 8.15481e-05 0
-0.00351186 -0.000939823 0 0.00351186 -0.000939823 0 -0.00351918 0.00103087 0 0.00351918
0.00103087 0 -0.00352245 0.00191322 0 0.00352245 0.00191322 0 -3.89947e-19 -0.00404214
0 -0.00350777 -0.00203871 0 0.00350777 -0.00203871 0 -0.00180405 -0.00383352 0
0.00180405 -0.00383352 0 -0.00350338 -0.00322101 0 0.00350338 -0.00322101 0 -0.005
8.60602e-05 0 0.005 8.60602e-05 0 -0.005 -0.00103629 0 0.005 -0.00103629
0 -0.005 0.00112923 0 0.005 0.00112923 0 -3.79112e-19 -0.00529135 0
-0.00180023 -0.00508853 0 0.00180023 -0.00508853 0 -0.005 0.00209882 0 0.005
0.00209882 0 -0.005 -0.00224382 0 0.005 -0.00224382 0 -0.00349866 -0.00449304
0 0.00349866 -0.00449304 0 -0.005 0.003 0 0.005 0.003 0
-0.005 -0.003543 0 0.005 -0.003543 0 -0.00637208 2.82617e-05 0 0.00639053
4.25732e-05 0 -0.00637208 0.00114892 0 -0.00637208 -0.00117745 0 0.00639053 -0.00116311
0 0.00639053 0.00116321 0 -3.67455e-19 -0.00663538 0 -0.00179612 -0.00643879 0
0.00179612 -0.00643879 0 -0.00637208 0.00219052 0 0.00639053 0.00220479 0 -0.00349357
-0.00586162 0 0.00349357 -0.00586162 0 -0.00637208 -0.00247467 0 0.00639053 -0.00246031
0 -0.005 -0.00494079 0 0.005 -0.00494079 0 -0.00637208 0.00315864 0
0.00639053 0.00317289 0 -0.00637208 -0.00387036 0 0.00639053 -0.00385597 0 -0.00637208
0.00405846 0 0.00639053 0.00407269 0 -0.00778421 -7.99569e-05 0 0.00781802 -5.3679e-05
0 -0.00778421 0.00112388 0 0.00781802 0.00115011 0 -0.00778421 -0.00137517 0
0.00781802 -0.00134884 0 -3.54912e-19 -0.00808142 0 -0.0017917 -0.00789154 0 0.0017917
-0.00789154 0 -0.00778421 0.0022428 0 -0.0034881 -0.00733407 0 0.0034881 -0.00733407
0 0.00781802 0.00226899 0 -0.005 -0.00644467 0 0.005 -0.00644467 0
-0.00778421 -0.00276868 0 0.00781802 -0.0027423 0 -0.00637208 -0.00537197 0 0.00639053
-0.00535755 0 -0.00778421 0.00328278 0 0.00781802 0.00330893 0 -0.00778421 0.00424939
0 -0.00778421 -0.00426796 0 0.00781802 -0.00424152 0 0.00781802 0.00427551 0
-0.00923755 -0.000243565 0 0.00928347 -0.000207818 0 -0.00923755 0.00104957 0 -0.00778421
0.00514782 0 0.00928347 0.00108525 0 0.00781802 0.0051739 0 -0.00923755 -0.00163485
0 0.00928347 -0.00159903 0 -0.00637208 -0.00698755 0 0.00639053 -0.0069731 0
-0.005 -0.0080627 0 0.005 -0.0080627 0 -0.00923755 0.00225148 0 0.00928347
0.0022871 0 -0.00348222 -0.00891827 0 0.00348222 -0.00891827 0 -0.00178695 -0.00945455
0 0.00178695 -0.00945455 0 -3.41418e-19 -0.00963721 0 -0.00923755 -0.00313172 0
-0.00778421 -0.00588103 0 0.00781802 -0.00585453 0 0.00928347 -0.00309583 0 -0.00923755
0.0033686 0 0.00928347 0.00340416 0 -0.00923755 0.00440692 0 0.00928347 0.00444243
0 -0.00923755 -0.00474221 0 0.00928347 -0.00470623 0 -0.00923755 0.00537198 0
-0.0107333 -0.000467921 0 0.00928347 0.00540745 0 -0.0107333 0.000921062 0 0.0107879
-0.000425364 0 0.00639053 -0.00871127 0 -0.00637208 -0.00872575 0 0.0107879 0.000963535
0 -0.00778421 -0.00761653 0 0.00781802 -0.00758997 0 -0.0107333 -0.00196233 0
0.0107879 -0.00191968 0 -0.0107333 0.00221206 0 -0.005 -0.00980352 0 0.005
-0.00980352 0 0.0107879 0.00225445 0 -0.00923755 0.00626897 0 -0.00347589 -0.0106227
0 0.00347589 -0.0106227 0 0.00928347 0.00630439 0 -0.0107333 0.00341198 0
-0.00178183 -0.0111362 0 0.00178183 -0.0111362 0 -0.00923755 -0.00647493 0 0.00928347
-0.00643887 0 -3.26899e-19 -0.0113111 0 -0.0107333 -0.00357015 0 0.0107879 0.00345431
0 0.0107879 -0.00352741 0 -0.0107333 0.00452726 0 0.0107879 0.00456952 0
-0.0107333 -0.00530001 0 0.0107879 -0.00525717 0 -0.0107333 0.00556386 0 0.0107879
0.00560606 0 -0.000743369 0.0122055 0 0.000743369 0.0122055 0 -0.00778421 -0.00948375
0 0.00781802 -0.00945713 0 -0.0122727 0.000733061 0 -0.0122727 -0.000758799 0
0.0123323 -0.000712262 0 0.0123323 0.0007795 0 0.00639053 -0.0105814 0 -0.00637208
-0.0105959 0 -0.00923755 -0.00833916 0 -0.0122727 0.00211968 0 0.00928347 -0.00830301
0 -0.0122727 -0.00236389 0 0.0123323 0.00216603 0 0.0123323 -0.00231725 0
-0.0107333 0.00652734 0 0.0107879 0.00656947 0 -0.005 -0.0116765 0 0.005
-0.0116765 0 -0.0122727 0.00340848 0 0.0123323 0.00345474 0 -0.000741126 0.0128136
0 0.000741126 0.0128136 0 -0.0107333 -0.00716117 0 0.0107879 -0.00711821 0
-0.00346908 -0.0124565 0 0.00346908 -0.0124565 0 -0.0122727 -0.00409081 0 0.0123323
-0.00404405 0 -0.0107333 0.00742284 0 -0.00177633 -0.0129455 0 0.00177633 -0.0129455
0 -0.0122727 0.00460636 0 -3.11279e-19 -0.013112 0 0.0107879 0.00746492 0
-0.002 0.013 0 0.002 0.013 0 0.0123323 0.00465255 0 -0.0007387
0.0134712 0 0.0007387 0.0134712 0 -0.0122727 0.00571974 0 0.0123323 0.00576585
0 -0.0122727 -0.00594879 0 0.0123323 -0.00590191 0 -0.002 0.0135849 0
0.002 0.0135849 0 -0.0138571 0.000479853 0 -0.00923755 -0.0103449 0 0.00928347
-0.0103086 0 0.00781802 -0.011466 0 -0.00778421 -0.0114927 0 -0.0138571 -0.00112242
0 0.0139177 0.000527252 0 0.0139177 -0.00107491 0 -0.0138571 0.0019691 0
-0.0122727 0.00675458 0 0.0139177 0.00201639 0 0.0123323 0.00680062 0 -0.0107333
-0.00916358 0 0.00639053 -0.0125934 0 0.0107879 -0.0091205 0 -0.00637208 -0.012608
0 -0.0138571 -0.0028463 0 0.0139177 -0.00279868 0 -0.000736077 0.0141824 0
0.000736077 0.0141824 0 -0.00319452 0.0138829 0 0.00320133 0.0138879 0 -0.0138571
0.00335328 0 0.0139177 0.00340049 0 -0.002 0.0142174 0 0.002 0.0142174
0 -0.0122727 0.00771641 0 0.0123323 0.00776239 0 -0.005 -0.0136916 0
0.005 -0.0136916 0 -0.0138571 0.00463982 0 -0.0122727 -0.0079478 0 -0.0138571
-0.00470103 0 0.0123323 -0.00790078 0 0.0139177 -0.00465328 0 0.0139177 0.00468694
0 -0.00319452 0.0144678 0 0.00320133 0.0144728 0 -0.00346175 -0.0144295 0
0.00346175 -0.0144295 0 -0.00073324 0.0149515 0 0.00073324 0.0149515 0 -0.0122727
0.00861039 0 -0.00177041 -0.0148921 0 0.00177041 -0.0148921 0 -0.002 0.0149014
0 0.002 0.0149014 0 -0.0138571 0.0058356 0 -2.94473e-19 -0.0150496 0
0.0123323 0.00865631 0 0.0139177 0.00588264 0 -0.0138571 -0.00669653 0 0.0139177
-0.00664864 0 -0.00319452 0.0151003 0 0.00320133 0.0151053 0 -0.0154877 0.000155282
0 -0.0138571 0.00694702 0 -0.00451419 0.0148583 0 0.0045263 0.0148673 0
0.00928347 -0.0124665 0 -0.00923755 -0.0125028 0 0.0155453 0.000200444 0 -0.0154877
-0.00156548 0 0.0139177 0.00699399 0 -0.0154877 0.00175466 0 -0.0107333 -0.011318
0 0.0107879 -0.0112748 0 0.0155453 -0.00152021 0 0.0155453 0.00179972 0
0.00781802 -0.0136273 0 -0.00778421 -0.0136541 0 -0.002 0.0156411 0 0.002
0.0156411 0 -0.000730172 0.0157833 0 0.000730172 0.0157833 0 -0.0154877 0.0032412
0 -0.0154877 -0.00341685 0 0.0155453 0.00328617 0 -0.0122727 -0.0100985 0
0.0155453 -0.00337146 0 0.0123323 -0.0100514 0 -0.0138571 0.00798004 0 0.0139177
0.00802694 0 0.00639053 -0.0147581 0 -0.00637208 -0.0147727 0 -0.00451419 0.0154432
0 0.0045263 0.0154521 0 -0.00319452 0.0157843 0 0.00320133 0.0157893 0
-0.0154877 0.00462288 0 0.0155453 0.00466776 0 -0.0154877 -0.00540874 0 -0.0138571
-0.00884348 0 0.0155453 -0.00536322 0 0.0139177 -0.00879545 0 -0.0138571 0.00894019
0 -0.002 0.0164411 0 0.002 0.0164411 0 0.0139177 0.00898702 0
-0.0154877 0.00590709 0 -0.005 -0.0158596 0 0.005 -0.0158596 0 0.0155453
0.00595189 0 -0.00451419 0.0160757 0 -0.000726854 0.0166828 0 0.000726854 0.0166828
0 0.0045263 0.0160846 0 -0.00319452 0.016524 0 0.00320133 0.016529 0
-0.00345386 -0.0165523 0 0.00345386 -0.0165523 0 -0.0138571 0.0098326 0 -0.00597213
0.0159359 0 0.00598764 0.0159474 0 -0.0154877 0.00710071 0 0.0139177 0.00987937
0 -0.00176404 -0.0169864 0 0.00176404 -0.0169864 0 0.0155453 0.00714543 0
-2.76391e-19 -0.0171343 0 -0.0171658 -0.000247278 0 0.0172162 -0.000207752 0 -0.0171658
0.00147028 0 -0.0154877 -0.0075518 0 0.0155453 -0.00750615 0 0.0172162 0.00150971
0 -0.0171658 -0.00209519 0 0.0172162 -0.00205556 0 0.0107879 -0.0135925 0
-0.0107333 -0.0136359 0 -0.00451419 0.0167597 0 0.0045263 0.0167686 0 -0.002
0.0173062 0 0.002 0.0173062 0 -0.0171658 0.00306667 0 -0.0122727 -0.0124125
0 0.00928347 -0.0147881 0 0.0123323 -0.0123652 0 -0.00923755 -0.0148246 0
0.0172162 0.00310601 0 -0.0154877 0.00821012 0 -0.00597213 0.0165208 0 0.00598764
0.0165323 0 0.0155453 0.00825477 0 -0.00319452 0.017324 0 0.00320133 0.017329
0 -0.0171658 -0.00408336 0 -0.000723266 0.0176555 0 0.000723266 0.0176555 0
0.0172162 -0.00404362 0 -0.0171658 0.00455044 0 0.00781802 -0.0159527 0 -0.00778421
-0.0159796 0 -0.0138571 -0.0111534 0 0.0139177 -0.0111052 0 0.0172162 0.0045897
0 -0.0154877 0.00924127 0 -0.00451419 0.0174994 0 0.0045263 0.0175084 0
0.0155453 0.00928585 0 -0.0171658 0.00592954 0 -0.00597213 0.0171533 0 0.00598764
0.0171648 0 0.0172162 0.00596872 0 0.00639053 -0.0170872 0 -0.00637208 -0.0171018
0 -0.0171658 -0.00622243 0 0.0172162 -0.00618257 0 -0.002 0.0182418 0
0.002 0.0182418 0 -0.0154877 -0.00985753 0 0.0155453 -0.00981172 0 -0.00319452
0.0181891 0 0.00320133 0.0181941 0 -0.0154877 0.0101997 0 0.0155453 0.0102442
0 -0.0171658 0.00721136 0 0.0172162 0.00725047 0 -0.000719385 0.0187075 0
0.000719385 0.0187075 0 -0.00758282 0.0171264 0 0.00759938 0.0171387 0 -0.00597213
0.0178373 0 0.00598764 0.0178488 0 -0.00451419 0.0182994 0 0.0045263 0.0183083
0 -0.005 -0.0181922 0 0.005 -0.0181922 0 -0.018893 -0.00073496 0
-0.018893 0.0011094 0 0.0189314 -0.000704684 0 0.0189314 0.0011396 0 -0.0154877
0.0110905 0 -0.018893 -0.0027193 0 -0.018893 0.00282365 0 -0.0171658 0.00840275
0 0.0189314 -0.00268894 0 0.0155453 0.0111349 0 0.0189314 0.00285377 0
-0.00344538 -0.0188361 0 0.00344538 -0.0188361 0 -0.0171658 -0.00852385 0 0.0172162
0.00844179 0 0.0172162 -0.00848386 0 -0.00758282 0.0177113 0 0.00759938 0.0177235
0 -0.0122727 -0.0149021 0 0.0123323 -0.0148546 0 -0.00175719 -0.0192397 0
[...]
CELL_DATA 15677
FIELD attributes 1
T 1 15677 float
349.999 349.997 349.994 349.996 349.99 349.992 349.995 349.989 349.99 349.995 349.995
349.988 349.988 349.992 350.003 349.995 349.987 349.986 349.99 350.001 350.008
349.995 349.987 349.985 349.988 349.998 350.006 350.008 349.995 349.986 349.985
349.987 349.995 350.004 350.007 350.007 349.995 349.986 349.985 349.986 349.993
350.001 350.006 350.007 350.004 349.995 349.986 349.984 349.986 349.992 349.999
350.003 350.005 350.004 350.001 349.995 349.986 349.984 349.985 349.991 349.998
350.001 350.003 350.003 350.001 350 349.995 349.986 349.984 349.985 349.991
349.997 350 350.001 350.002 350 350 350 349.995 349.986 349.984
349.985 349.99 349.997 349.999 350 350 349.999 349.999 350 350.001
349.995 349.986 349.984 349.985 349.99 349.996 349.998 349.999 349.999 349.997
349.997 349.999 350 350.003 349.995 349.986 349.984 349.985 349.99 349.996
349.998 349.998 349.998 349.995 349.995 349.997 349.999 350.002 350.004 349.995
349.986 349.983 349.984 349.99 349.996 349.998 349.998 349.997 349.994 349.993
349.994 349.997 350 350.003 350.005 349.995 349.986 349.983 349.984 349.989
349.995 349.997 349.998 349.997 349.993 349.992 349.992 349.994 349.997 350.002
350.004 350.005 349.995 349.986 349.984 349.984 349.989 349.995 349.997 349.997
349.996 349.993 349.991 349.99 349.992 349.994 349.999 350.002 350.004 350.005
349.995 349.986 349.984 349.984 349.989 349.995 349.997 349.997 349.996 349.993
349.99 349.989 349.99 349.992 349.996 350 350.003 350.004 350.004 349.995
349.986 349.984 349.984 349.989 349.995 349.997 349.997 349.996 349.993 349.99
349.989 349.989 349.99 349.993 349.997 350.001 350.003 350.003 350.002 349.995
349.986 349.984 349.984 349.989 349.995 349.997 349.997 349.996 349.993 349.99
349.988 349.988 349.989 349.99 349.994 349.998 350.001 350.002 350.002 350
349.995 349.986 349.984 349.984 349.989 349.995 349.997 349.997 349.996 349.993
349.99 349.988 349.988 349.988 349.989 349.992 349.995 349.998 350.001 350.001
350 349.998 349.995 349.986 349.984 349.985 349.989 349.995 349.997 349.997
349.996 349.993 349.989 349.988 349.987 349.988 349.988 349.99 349.993 349.996
349.998 350 350 349.998 349.996 349.995 349.986 349.984 349.985 349.99
349.995 349.997 349.997 349.996 349.993 349.989 349.988 349.987 349.987 349.988
349.989 349.991 349.993 349.995 349.998 349.999 349.998 349.996 349.994 349.995
349.986 349.984 349.985 349.99 349.995 349.997 349.997 349.996 349.993 349.99
349.988 349.987 349.987 349.987 349.988 349.99 349.992 349.993 349.995 349.997
349.997 349.996 349.994 349.992 349.995 349.986 349.984 349.985 349.99 349.995
349.997 349.997 349.996 349.993 349.99 349.988 349.987 349.987 349.987 349.988
349.989 349.99 349.992 349.993 349.995 349.995 349.995 349.993 349.992 349.99
349.995 349.987 349.984 349.985 349.99 349.996 349.997 349.997 349.996 349.993
349.99 349.988 349.987 349.987 349.987 349.988 349.989 349.99 349.99 349.991
349.992 349.993 349.993 349.993 349.991 349.99 349.988 349.995 349.987 349.985
349.986 349.99 349.996 349.997 349.997 349.996 349.993 349.99 349.988 349.987
349.987 349.987 349.988 349.989 349.989 349.99 349.99 349.991 349.991 349.991
349.991 349.99 349.989 349.988 349.986 349.995 349.987 349.985 349.986 349.991
349.996 349.997 349.997 349.996 349.993 349.99 349.988 349.987 349.987 349.987
349.988 349.988 349.989 349.989 349.99 349.99 349.99 349.99 349.989 349.989
349.988 349.987 349.986 349.985 349.995 349.987 349.985 349.986 349.991 349.996
349.997 349.997 349.996 349.993 349.99 349.988 349.988 349.987 349.987 349.988
349.988 349.989 349.989 349.989 349.989 349.989 349.988 349.988 349.987 349.986
349.986 349.985 349.984 349.983 349.995 349.987 349.986 349.987 349.992 349.996
349.997 349.997 349.996 349.993 349.99 349.989 349.988 349.988 349.988 349.988
349.989 349.989 349.989 349.989 349.989 349.988 349.987 349.986 349.985 349.985
349.984 349.983 349.983 349.982 349.981 349.995 349.987 349.986 349.987 349.992
349.996 349.997 349.997 349.996 349.993 349.99 349.989 349.988 349.988 349.988
349.988 349.989 349.989 349.989 349.989 349.988 349.988 349.987 349.985 349.984
349.983 349.982 349.982 349.981 349.98 349.98 349.979 349.995 349.988 349.986
349.988 349.993 349.997 349.998 349.997 349.996 349.993 349.99 349.989 349.988
349.988 349.988 349.989 349.989 349.99 349.989 349.989 349.988 349.988 349.986
349.985 349.983 349.982 349.98 349.98 349.979 349.979 349.978 349.977 349.977
349.995 349.988 349.987 349.988 349.994 349.997 349.998 349.997 349.995 349.992
349.99 349.989 349.989 349.988 349.988 349.989 349.99 349.99 349.99 349.989
349.988 349.987 349.986 349.984 349.983 349.981 349.979 349.978 349.977 349.977
349.976 349.976 349.975 349.974 349.995 349.988 349.987 349.989 349.994 349.997
349.998 349.997 349.995 349.992 349.99 349.989 349.989 349.989 349.989 349.989
349.99 349.99 349.99 349.99 349.989 349.988 349.986 349.984 349.982 349.98
349.978 349.976 349.975 349.975 349.974 349.974 349.973 349.973 349.972 349.988
349.995 349.987 349.989 349.995 349.998 349.998 349.997 349.995 349.992 349.991
349.99 349.989 349.989 349.989 349.99 349.991 349.991 349.991 349.99 349.989
349.988 349.986 349.984 349.982 349.98 349.978 349.976 349.974 349.973 349.972
349.971 349.971 349.971 349.971 349.97 349.987 349.988 349.995 349.989 349.995
349.998 349.998 349.998 349.995 349.992 349.991 349.99 349.99 349.99 349.99
349.991 349.991 349.991 349.991 349.991 349.99 349.988 349.987 349.985 349.982
349.98 349.977 349.975 349.973 349.971 349.97 349.969 349.968 349.968 349.968
349.969 349.969 349.989 349.987 349.987 349.995 349.995 349.998 349.999 349.998
349.995 349.992 349.991 349.99 349.99 349.99 349.99 349.991 349.992 349.992
349.992 349.991 349.99 349.989 349.987 349.985 349.982 349.98 349.977 349.975
349.972 349.97 349.968 349.967 349.966 349.966 349.966 349.966 349.967 349.967
349.995 349.989 349.986 349.987 349.995 349.998 349.999 349.998 349.995 349.992
349.991 349.991 349.99 349.99 349.991 349.992 349.992 349.993 349.992 349.992
349.991 349.99 349.988 349.986 349.983 349.98 349.977 349.975 349.972 349.97
349.967 349.965 349.964 349.963 349.963 349.964 349.964 349.965 349.965 349.998
349.995 349.988 349.986 349.987 349.995 349.999 349.998 349.995 349.992 349.991
349.991 349.991 349.991 349.991 349.992 349.993 349.993 349.993 349.992 349.992
349.99 349.989 349.986 349.984 349.981 349.978 349.975 349.972 349.97 349.967
349.964 349.962 349.961 349.96 349.961 349.961 349.962 349.963 349.963 349.999
349.998 349.994 349.988 349.986 349.987 349.995 349.998 349.995 349.993 349.991
349.991 349.991 349.991 349.992 349.993 349.994 349.994 349.994 349.993 349.992
349.991 349.989 349.987 349.984 349.981 349.978 349.975 349.972 349.97 349.967
349.964 349.961 349.959 349.958 349.958 349.958 349.959 349.96 349.961 349.962
349.998 349.999 349.998 349.994 349.988 349.986 349.987 349.995 349.995 349.993
349.992 349.991 349.991 349.992 349.993 349.994 349.994 349.995 349.994 349.994
349.993 349.992 349.99 349.988 349.985 349.982 349.979 349.976 349.973 349.97
349.967 349.964 349.961 349.958 349.956 349.955 349.955 349.956 349.957 349.958
349.959 349.96 349.995 349.998 349.998 349.998 349.993 349.987 349.986 349.987
349.995 349.993 349.992 349.992 349.992 349.992 349.993 349.994 349.995 349.995
349.995 349.995 349.994 349.993 349.991 349.989 349.986 349.983 349.98 349.976
349.973 349.97 349.967 349.963 349.96 349.958 349.956 349.954 349.953 349.953
349.954 349.955 349.956 349.958 349.959 349.993 349.995 349.998 349.998 349.997
349.993 349.987 349.986 349.987 349.995 349.992 349.992 349.992 349.993 349.994
349.995 349.996 349.996 349.996 349.995 349.995 349.993 349.992 349.99 349.987
349.984 349.981 349.977 349.974 349.971 349.967 349.964 349.96 349.957 349.955
349.953 349.951 349.95 349.95 349.951 349.953 349.955 349.956 349.957 349.992
349.993 349.995 349.998 349.998 349.997 349.992 349.987 349.985 349.987 349.995
349.992 349.992 349.993 349.995 349.996 349.996 349.996 349.996 349.996 349.995
349.994 349.993 349.991 349.988 349.985 349.982 349.978 349.975 349.971 349.968
349.964 349.96 349.957 349.954 349.952 349.95 349.949 349.948 349.948 349.949
349.951 349.953 349.955 349.956 349.992 349.992 349.993 349.995 349.998 349.998
349.997 349.992 349.986 349.985 349.987 349.995 349.992 349.993 349.995 349.996
349.997 349.997 349.997 349.996 349.996 349.995 349.993 349.991 349.989 349.986
349.983 349.979 349.976 349.972 349.968 349.964 349.961 349.957 349.954 349.952
349.949 349.948 349.946 349.946 349.946 349.948 349.949 349.952 349.953 349.955
349.992 349.992 349.992 349.993 349.995 349.998 349.998 349.997 349.992 349.986
349.985 349.987 349.995 349.994 349.995 349.997 349.997 349.998 349.998 349.997
349.996 349.996 349.994 349.992 349.99 349.987 349.984 349.981 349.977 349.973
349.969 349.965 349.961 349.957 349.954 349.951 349.949 349.947 349.945 349.944
349.944 349.944 349.946 349.948 349.95 349.952 349.954 349.994 349.992 349.992
349.992 349.993 349.996 349.998 349.998 349.997 349.991 349.986 349.985 349.987
349.995 349.996 349.997 349.998 349.998 349.998 349.998 349.997 349.996 349.995
349.993 349.991 349.988 349.985 349.982 349.978 349.974 349.97 349.966 349.962
349.958 349.954 349.951 349.949 349.946 349.944 349.943 349.942 349.942 349.943
349.944 349.946 349.949 349.951 349.953 349.996 349.993 349.992 349.991 349.992
349.993 349.996 349.998 349.998 349.996 349.991 349.986 349.985 349.987 349.995
349.997 349.998 349.999 349.999 349.998 349.998 349.997 349.996 349.994 349.992
349.989 349.987 349.983 349.98 349.976 349.972 349.967 349.963 349.958 349.955
349.951 349.948 349.946 349.944 349.942 349.941 349.94 349.94 349.941 349.943
349.945 349.948 349.95 349.952 349.997 349.995 349.993 349.992 349.991 349.992
349.993 349.996 349.998 349.998 349.996 349.991 349.986 349.985 349.987 349.995
349.998 349.999 349.999 349.999 349.998 349.998 349.996 349.995 349.993 349.991
349.988 349.985 349.981 349.977 349.973 349.968 349.964 349.959 349.955 349.952
349.948 349.946 349.944 349.942 349.94 349.939 349.938 349.938 349.939 349.941
349.944 349.946 349.949 349.951 349.998 349.997 349.995 349.993 349.992 349.991
349.992 349.993 349.996 349.998 349.998 349.996 349.991 349.986 349.985 349.987
349.996 349.999 349.999 349.999 349.999 349.998 349.997 349.996 349.994 349.992
349.989 349.986 349.983 349.979 349.975 349.97 349.965 349.96 349.956 349.952
349.949 349.946 349.943 349.941 349.939 349.938 349.937 349.936 349.937 349.938
349.94 349.943 349.945 349.948 349.95 349.999 349.998 349.997 349.995 349.992
349.991 349.991 349.992 349.993 349.996 349.998 349.998 349.996 349.99 349.986
349.985 349.987 349.996 350 350 349.999 349.999 349.998 349.996 349.995
349.993 349.991 349.988 349.985 349.981 349.977 349.971 349.966 349.961 349.957
349.953 349.949 349.946 349.943 349.941 349.939 349.937 349.936 349.935 349.935
349.935 349.936 349.939 349.941 349.944 349.947 349.949 350 349.999 349.998
349.997 349.994 349.992 349.991 349.991 349.992 349.993 349.997 349.998 349.998
349.996 349.99 349.986 349.985 349.988 349.996 350 350 349.999 349.998
349.997 349.996 349.994 349.992 349.989 349.986 349.983 349.978 349.973 349.968
349.963 349.958 349.953 349.949 349.946 349.943 349.94 349.938 349.937 349.935
349.934 349.934 349.933 349.934 349.935 349.937 349.94 349.944 349.946 349.948
350 350 349.999 349.998 349.996 349.994 349.992 349.991 349.991 349.992
349.994 349.997 349.998 349.998 349.996 349.99 349.986 349.985 349.988 349.996
350 350 349.999 349.998 349.997 349.995 349.993 349.991 349.988 349.985
349.98 349.976 349.97 349.964 349.959 349.954 349.95 349.946 349.943 349.94
349.938 349.936 349.935 349.934 349.933 349.932 349.932 349.932 349.934 349.936
349.94 349.943 349.946 349.948 350 350 350 349.999 349.998 349.996
349.994 349.992 349.991 349.991 349.992 349.994 349.997 349.998 349.998 349.996
349.99 349.986 349.985 349.988 349.996 350 349.999 349.998 349.997 349.996
349.994 349.992 349.99 349.986 349.983 349.978 349.972 349.966 349.961 349.955
349.95 349.946 349.943 349.94 349.938 349.936 349.934 349.933 349.932 349.931
349.931 349.93 349.931 349.933 349.935 349.939 349.942 349.945 349.947 350
350 350 350 349.999 349.998 349.996 349.993 349.992 349.991 349.991
349.992 349.994 349.997 349.998 349.998 349.996 349.99 349.986 349.985 349.988
349.996 350 349.999 349.998 349.997 349.995 349.993 349.991 349.988 349.985
349.98 349.975 349.969 349.963 349.957 349.951 349.947 349.943 349.94 349.937
349.935 349.933 349.932 349.931 349.93 349.93 349.929 349.929 349.93 349.932
349.935 349.938 349.941 349.945 349.947 350 350 350 350 350
349.999 349.997 349.996 349.993 349.992 349.991 349.991 349.992 349.994 349.997
349.998 349.998 349.996 349.99 349.986 349.985 349.988 349.996 349.999 349.999
349.998 349.996 349.995 349.993 349.99 349.987 349.982 349.977 349.971 349.965
349.959 349.953 349.947 349.943 349.939 349.937 349.934 349.933 349.931 349.93
349.93 349.929 349.928 349.928 349.928 349.929 349.931 349.934 349.937 349.941
349.944 349.946 350 350 350 350 350 350 349.999 349.997
349.995 349.993 349.992 349.991 349.991 349.992 349.995 349.998 349.999 349.998
349.996 349.99 349.986 349.985 349.988 349.996 349.999 349.998 349.997 349.996
349.994 349.992 349.989 349.985 349.98 349.974 349.968 349.961 349.955 349.949
349.944 349.939 349.936 349.934 349.932 349.931 349.929 349.929 349.928 349.927
349.927 349.927 349.927 349.928 349.93 349.933 349.937 349.941 349.944 349.946
349.999 350 350 350.001 350.001 350 350 349.999 349.997 349.995
349.993 349.991 349.991 349.991 349.992 349.995 349.998 349.999 349.999 349.996
349.99 349.986 349.985 349.988 349.996 349.999 349.998 349.997 349.995 349.993
349.991 349.987 349.982 349.977 349.971 349.964 349.957 349.951 349.945 349.94
349.936 349.933 349.931 349.93 349.928 349.928 349.927 349.927 349.926 349.926
349.926 349.926 349.927 349.929 349.933 349.936 349.94 349.943 349.945 349.999
350 350 350.001 350.001 350.001 350 350 349.999 349.997 349.995
349.992 349.991 349.991 349.991 349.992 349.995 349.998 349.999 349.999 349.996
349.99 349.986 349.985 349.988 349.999 349.998 349.996 349.995 349.992 349.989
349.985 349.98 349.974 349.967 349.96 349.953 349.947 349.941 349.936 349.933
349.93 349.929 349.927 349.927 349.926 349.926 349.925 349.925 349.925 349.925
349.925 349.927 349.929 349.932 349.936 349.939 349.942 349.945 349.999 350
350 350.001 350.001 350.001 350.001 350 350 349.998 349.997 349.995
349.992 349.991 349.991 349.991 349.993 349.995 349.998 349.999 349.999 349.996
349.99 349.986 349.985 349.998 349.997 349.996 349.994 349.991 349.987 349.983
349.977 349.971 349.964 349.956 349.949 349.943 349.937 349.933 349.93 349.928
349.926 349.925 349.925 349.925 349.924 349.924 349.924 349.924 349.924 349.925
349.926 349.928 349.932 349.935 349.939 349.942 349.944 349.999 350 350
350.001 350.001 350.001 350.001 350.001 350.001 350 349.998 349.997 349.994
349.992 349.991 349.991 349.991 349.993 349.996 349.998 349.999 349.999 349.996
349.99 349.986 349.998 349.997 349.995 349.993 349.989 349.985 349.98 349.974
349.967 349.959 349.952 349.945 349.939 349.934 349.93 349.927 349.925 349.924
349.924 349.923 349.923 349.923 349.923 349.923 349.923 349.923 349.924 349.926
349.928 349.931 349.934 349.938 349.941 349.943 349.999 349.999 350 350.001
350.001 350.001 350.002 350.002 350.001 350.001 350 349.998 349.996 349.994
349.992 349.991 349.991 349.992 349.993 349.996 349.998 349.999 349.999 349.996
349.99 349.998 349.996 349.994 349.991 349.987 349.982 349.977 349.97 349.962
349.955 349.948 349.941 349.935 349.931 349.927 349.925 349.923 349.922 349.922
349.922 349.922 349.922 349.922 349.922 349.922 349.923 349.923 349.925 349.927
349.93 349.934 349.937 349.94 349.942 349.998 349.999 350 350.001 350.001
350.002 350.002 350.002 350.002 350.001 350.001 350 349.998 349.996 349.994
349.992 349.991 349.991 349.992 349.993 349.996 349.998 349.999 349.999 349.996
349.997 349.996 349.993 349.99 349.985 349.979 349.973 349.965 349.958 349.95
349.943 349.937 349.931 349.927 349.924 349.922 349.921 349.921 349.92 349.921
349.921 349.921 349.921 349.922 349.922 349.922 349.923 349.924 349.926 349.929
349.933 349.936 349.939 349.941 349.999 349.998 350 350.001 350.001 350.002
350.002 350.002 350.002 350.002 350.001 350.001 350 349.998 349.996 349.994
349.992 349.991 349.991 349.992 349.993 349.996 349.998 349.999 349.999 349.997
349.995 349.991 349.987 349.982 349.975 349.968 349.961 349.953 349.945 349.938
349.932 349.928 349.924 349.922 349.92 349.919 349.919 349.919 349.919 349.92
349.92 349.921 349.921 349.921 349.921 349.922 349.923 349.926 349.928 349.932
349.935 349.938 349.939 350 349.999 349.998 350.001 350.002 350.002 350.002
350.003 350.003 350.002 350.002 350.002 350.001 349.999 349.998 349.996 349.994
349.992 349.992 349.991 349.992 349.993 349.996 349.998 349.999 349.996 349.993
349.989 349.984 349.978 349.971 349.963 349.955 349.947 349.94 349.934 349.928
349.924 349.921 349.919 349.918 349.918 349.918 349.918 349.918 349.919 349.92
349.92 349.92 349.921 349.921 349.921 349.923 349.925 349.928 349.931 349.934
349.937 350.001 350 349.999 349.997 350.002 350.002 350.003 350.003 350.003
350.003 350.003 350.002 350.002 350.001 349.999 349.998 349.996 349.994 349.992
349.992 349.991 349.992 349.993 349.996 349.998 349.994 349.991 349.986 349.98
349.973 349.966 349.958 349.95 349.942 349.935 349.929 349.924 349.921 349.919
349.917 349.917 349.916 349.917 349.917 349.918 349.919 349.919 349.92 349.92
349.92 349.92 349.92 349.922 349.924 349.926 349.93 349.933 350.002 350.001
350 349.998 349.996 350.003 350.003 350.003 350.003 350.003 350.003 350.003
350.002 350.002 350.001 349.999 349.998 349.996 349.993 349.992 349.992 349.991
349.992 349.993 349.996 349.992 349.988 349.982 349.976 349.968 349.96 349.952
349.944 349.936 349.93 349.925 349.921 349.918 349.916 349.915 349.915 349.915
349.916 349.916 349.917 349.918 349.919 349.919 349.919 349.919 349.919 349.919
349.921 349.922 349.925 349.928 350.003 350.003 350.002 350 349.997 349.993
350.004 350.004 350.004 350.004 350.004 350.003 350.003 350.003 350.002 350.001
349.999 349.998 349.996 349.993 349.992 349.992 349.991 349.992 349.993 349.989
349.984 349.978 349.97 349.963 349.954 349.946 349.938 349.931 349.925 349.92
349.917 349.915 349.914 349.914 349.914 349.914 349.915 349.916 349.917 349.918
349.918 349.918 349.918 349.918 349.918 349.918 349.919 349.921 349.924 350.004
350.004 350.003 350.002 349.999 349.995 349.99 350.004 350.004 350.004 350.004
350.004 350.004 350.003 350.003 350.002 350.001 349.999 349.998 349.995 349.993
349.992 349.991 349.991 349.992 349.985 349.979 349.973 349.965 349.957 349.948
349.939 349.932 349.925 349.92 349.916 349.914 349.913 349.912 349.912 349.913
349.913 349.914 349.915 349.916 349.917 349.918 349.918 349.918 349.917 349.917
349.917 349.918 349.92 350.005 350.005 350.004 350.003 350.001 349.998 349.993
349.987 350.005 350.005 350.005 350.005 350.004 350.004 350.003 350.003 350.002
350.001 349.999 349.997 349.995 349.993 349.992 349.991 349.991 349.981 349.974
349.967 349.959 349.95 349.941 349.933 349.925 349.92 349.915 349.913 349.911
349.91 349.91 349.911 349.912 349.913 349.914 349.915 349.916 349.916 349.917
349.917 349.917 349.916 349.916 349.916 349.917 350.006 350.006 350.006 350.005
350.003 350 349.996 349.989 349.982 350.006 350.005 350.005 350.005 350.004
350.004 350.003 350.003 350.002 350.001 349.999 349.997 349.995 349.993 349.992
349.991 349.976 349.969 349.961 349.952 349.943 349.934 349.926 349.919 349.914
349.911 349.909 349.908 349.908 349.909 349.91 349.911 349.912 349.913 349.914
349.915 349.916 349.916 349.916 349.915 349.915 349.915 349.915 350.006 350.007
350.007 350.007 350.005 350.003 349.999 349.993 349.985 349.977 350.006 350.006
350.005 350.005 350.005 350.004 350.004 350.003 350.002 350.001 349.999 349.997
349.995 349.993 349.992 349.97 349.962 349.954 349.945 349.935 349.927 349.919
349.913 349.909 349.907 349.906 349.906 349.906 349.907 349.909 349.91 349.912