# vtk DataFile Version 2.0
sampleSurface
ASCII
DATASET POLYDATA
POINTS 15978 float
-4.26165e-19 0.000133477 0 -4.18079e-19 -0.000798814 0 -4.33681e-19 0.001 0 -4.09379e-19 -0.00180187
0 -0.00181681 0.000361473 0 0.00181681 0.000361473 0 -0.00181396 -0.000575145 0
0.00181396 -0.000575145 0 -0.00181945 0.00123202 0 0.00181945 0.00123202 0 -0.00181089
-0.00158285 0 0.00181089 -0.00158285 0 -4.00018e-19 -0.00288105 0 -0.00180759 -0.00266704
0 0.00180759 -0.00266704 0 -0.00351565 8.15481e-05 0 0.00351565 8.15481e-05 0
-0.00351186 -0.000939823 0 0.00351186 -0.000939823 0 -0.00351918 0.00103087 0 0.00351918
0.00103087 0 -0.00352245 0.00191322 0 0.00352245 0.00191322 0 -3.89947e-19 -0.00404214
0 -0.00350777 -0.00203871 0 0.00350777 -0.00203871 0 -0.00180405 -0.00383352 0
0.00180405 -0.00383352 0 -0.00350338 -0.00322101 0 0.00350338 -0.00322101 0 -0.005
8.60602e-05 0 0.005 8.60602e-05 0 -0.005 -0.00103629 0 0.005 -0.00103629
0 -0.005 0.00112923 0 0.005 0.00112923 0 -3.79112e-19 -0.00529135 0
-0.00180023 -0.00508853 0 0.00180023 -0.00508853 0 -0.005 0.00209882 0 0.005
0.00209882 0 -0.005 -0.00224382 0 0.005 -0.00224382 0 -0.00349866 -0.00449304
0 0.00349866 -0.00449304 0 -0.005 0.003 0 0.005 0.003 0
-0.005 -0.003543 0 0.005 -0.003543 0 -0.00637208 2.82617e-05 0 0.00639053
4.25732e-05 0 -0.00637208 0.00114892 0 -0.00637208 -0.00117745 0 0.00639053 -0.00116311
0 0.00639053 0.00116321 0 -3.67455e-19 -0.00663538 0 -0.00179612 -0.00643879 0
0.00179612 -0.00643879 0 -0.00637208 0.00219052 0 0.00639053 0.00220479 0 -0.00349357
-0.00586162 0 0.00349357 -0.00586162 0 -0.00637208 -0.00247467 0 0.00639053 -0.00246031
0 -0.005 -0.00494079 0 0.005 -0.00494079 0 -0.00637208 0.00315864 0
0.00639053 0.00317289 0 -0.00637208 -0.00387036 0 0.00639053 -0.00385597 0 -0.00637208
0.00405846 0 0.00639053 0.00407269 0 -0.00778421 -7.99569e-05 0 0.00781802 -5.3679e-05
0 -0.00778421 0.00112388 0 0.00781802 0.00115011 0 -0.00778421 -0.00137517 0
0.00781802 -0.00134884 0 -3.54912e-19 -0.00808142 0 -0.0017917 -0.00789154 0 0.0017917
-0.00789154 0 -0.00778421 0.0022428 0 -0.0034881 -0.00733407 0 0.0034881 -0.00733407
0 0.00781802 0.00226899 0 -0.005 -0.00644467 0 0.005 -0.00644467 0
-0.00778421 -0.00276868 0 0.00781802 -0.0027423 0 -0.00637208 -0.00537197 0 0.00639053
-0.00535755 0 -0.00778421 0.00328278 0 0.00781802 0.00330893 0 -0.00778421 0.00424939
0 -0.00778421 -0.00426796 0 0.00781802 -0.00424152 0 0.00781802 0.00427551 0
-0.00923755 -0.000243565 0 0.00928347 -0.000207818 0 -0.00923755 0.00104957 0 -0.00778421
0.00514782 0 0.00928347 0.00108525 0 0.00781802 0.0051739 0 -0.00923755 -0.00163485
0 0.00928347 -0.00159903 0 -0.00637208 -0.00698755 0 0.00639053 -0.0069731 0
-0.005 -0.0080627 0 0.005 -0.0080627 0 -0.00923755 0.00225148 0 0.00928347
0.0022871 0 -0.00348222 -0.00891827 0 0.00348222 -0.00891827 0 -0.00178695 -0.00945455
0 0.00178695 -0.00945455 0 -3.41418e-19 -0.00963721 0 -0.00923755 -0.00313172 0
-0.00778421 -0.00588103 0 0.00781802 -0.00585453 0 0.00928347 -0.00309583 0 -0.00923755
0.0033686 0 0.00928347 0.00340416 0 -0.00923755 0.00440692 0 0.00928347 0.00444243
0 -0.00923755 -0.00474221 0 0.00928347 -0.00470623 0 -0.00923755 0.00537198 0
-0.0107333 -0.000467921 0 0.00928347 0.00540745 0 -0.0107333 0.000921062 0 0.0107879
-0.000425364 0 0.00639053 -0.00871127 0 -0.00637208 -0.00872575 0 0.0107879 0.000963535
0 -0.00778421 -0.00761653 0 0.00781802 -0.00758997 0 -0.0107333 -0.00196233 0
0.0107879 -0.00191968 0 -0.0107333 0.00221206 0 -0.005 -0.00980352 0 0.005
-0.00980352 0 0.0107879 0.00225445 0 -0.00923755 0.00626897 0 -0.00347589 -0.0106227
0 0.00347589 -0.0106227 0 0.00928347 0.00630439 0 -0.0107333 0.00341198 0
-0.00178183 -0.0111362 0 0.00178183 -0.0111362 0 -0.00923755 -0.00647493 0 0.00928347
-0.00643887 0 -3.26899e-19 -0.0113111 0 -0.0107333 -0.00357015 0 0.0107879 0.00345431
0 0.0107879 -0.00352741 0 -0.0107333 0.00452726 0 0.0107879 0.00456952 0
-0.0107333 -0.00530001 0 0.0107879 -0.00525717 0 -0.0107333 0.00556386 0 0.0107879
0.00560606 0 -0.000743369 0.0122055 0 0.000743369 0.0122055 0 -0.00778421 -0.00948375
0 0.00781802 -0.00945713 0 -0.0122727 0.000733061 0 -0.0122727 -0.000758799 0
0.0123323 -0.000712262 0 0.0123323 0.0007795 0 0.00639053 -0.0105814 0 -0.00637208
-0.0105959 0 -0.00923755 -0.00833916 0 -0.0122727 0.00211968 0 0.00928347 -0.00830301
0 -0.0122727 -0.00236389 0 0.0123323 0.00216603 0 0.0123323 -0.00231725 0
-0.0107333 0.00652734 0 0.0107879 0.00656947 0 -0.005 -0.0116765 0 0.005
-0.0116765 0 -0.0122727 0.00340848 0 0.0123323 0.00345474 0 -0.000741126 0.0128136
0 0.000741126 0.0128136 0 -0.0107333 -0.00716117 0 0.0107879 -0.00711821 0
-0.00346908 -0.0124565 0 0.00346908 -0.0124565 0 -0.0122727 -0.00409081 0 0.0123323
-0.00404405 0 -0.0107333 0.00742284 0 -0.00177633 -0.0129455 0 0.00177633 -0.0129455
0 -0.0122727 0.00460636 0 -3.11279e-19 -0.013112 0 0.0107879 0.00746492 0
-0.002 0.013 0 0.002 0.013 0 0.0123323 0.00465255 0 -0.0007387
0.0134712 0 0.0007387 0.0134712 0 -0.0122727 0.00571974 0 0.0123323 0.00576585
0 -0.0122727 -0.00594879 0 0.0123323 -0.00590191 0 -0.002 0.0135849 0
0.002 0.0135849 0 -0.0138571 0.000479853 0 -0.00923755 -0.0103449 0 0.00928347
-0.0103086 0 0.00781802 -0.011466 0 -0.00778421 -0.0114927 0 -0.0138571 -0.00112242
0 0.0139177 0.000527252 0 0.0139177 -0.00107491 0 -0.0138571 0.0019691 0
-0.0122727 0.00675458 0 0.0139177 0.00201639 0 0.0123323 0.00680062 0 -0.0107333
-0.00916358 0 0.00639053 -0.0125934 0 0.0107879 -0.0091205 0 -0.00637208 -0.012608
0 -0.0138571 -0.0028463 0 0.0139177 -0.00279868 0 -0.000736077 0.0141824 0
0.000736077 0.0141824 0 -0.00319452 0.0138829 0 0.00320133 0.0138879 0 -0.0138571
0.00335328 0 0.0139177 0.00340049 0 -0.002 0.0142174 0 0.002 0.0142174
0 -0.0122727 0.00771641 0 0.0123323 0.00776239 0 -0.005 -0.0136916 0
0.005 -0.0136916 0 -0.0138571 0.00463982 0 -0.0122727 -0.0079478 0 -0.0138571
-0.00470103 0 0.0123323 -0.00790078 0 0.0139177 -0.00465328 0 0.0139177 0.00468694
0 -0.00319452 0.0144678 0 0.00320133 0.0144728 0 -0.00346175 -0.0144295 0
0.00346175 -0.0144295 0 -0.00073324 0.0149515 0 0.00073324 0.0149515 0 -0.0122727
0.00861039 0 -0.00177041 -0.0148921 0 0.00177041 -0.0148921 0 -0.002 0.0149014
0 0.002 0.0149014 0 -0.0138571 0.0058356 0 -2.94473e-19 -0.0150496 0
0.0123323 0.00865631 0 0.0139177 0.00588264 0 -0.0138571 -0.00669653 0 0.0139177
-0.00664864 0 -0.00319452 0.0151003 0 0.00320133 0.0151053 0 -0.0154877 0.000155282
0 -0.0138571 0.00694702 0 -0.00451419 0.0148583 0 0.0045263 0.0148673 0
0.00928347 -0.0124665 0 -0.00923755 -0.0125028 0 0.0155453 0.000200444 0 -0.0154877
-0.00156548 0 0.0139177 0.00699399 0 -0.0154877 0.00175466 0 -0.0107333 -0.011318
0 0.0107879 -0.0112748 0 0.0155453 -0.00152021 0 0.0155453 0.00179972 0
0.00781802 -0.0136273 0 -0.00778421 -0.0136541 0 -0.002 0.0156411 0 0.002
0.0156411 0 -0.000730172 0.0157833 0 0.000730172 0.0157833 0 -0.0154877 0.0032412
0 -0.0154877 -0.00341685 0 0.0155453 0.00328617 0 -0.0122727 -0.0100985 0
0.0155453 -0.00337146 0 0.0123323 -0.0100514 0 -0.0138571 0.00798004 0 0.0139177
0.00802694 0 0.00639053 -0.0147581 0 -0.00637208 -0.0147727 0 -0.00451419 0.0154432
0 0.0045263 0.0154521 0 -0.00319452 0.0157843 0 0.00320133 0.0157893 0
-0.0154877 0.00462288 0 0.0155453 0.00466776 0 -0.0154877 -0.00540874 0 -0.0138571
-0.00884348 0 0.0155453 -0.00536322 0 0.0139177 -0.00879545 0 -0.0138571 0.00894019
0 -0.002 0.0164411 0 0.002 0.0164411 0 0.0139177 0.00898702 0
-0.0154877 0.00590709 0 -0.005 -0.0158596 0 0.005 -0.0158596 0 0.0155453
0.00595189 0 -0.00451419 0.0160757 0 -0.000726854 0.0166828 0 0.000726854 0.0166828
0 0.0045263 0.0160846 0 -0.00319452 0.016524 0 0.00320133 0.016529 0
-0.00345386 -0.0165523 0 0.00345386 -0.0165523 0 -0.0138571 0.0098326 0 -0.00597213
0.0159359 0 0.00598764 0.0159474 0 -0.0154877 0.00710071 0 0.0139177 0.00987937
0 -0.00176404 -0.0169864 0 0.00176404 -0.0169864 0 0.0155453 0.00714543 0
-2.76391e-19 -0.0171343 0 -0.0171658 -0.000247278 0 0.0172162 -0.000207752 0 -0.0171658
0.00147028 0 -0.0154877 -0.0075518 0 0.0155453 -0.00750615 0 0.0172162 0.00150971
0 -0.0171658 -0.00209519 0 0.0172162 -0.00205556 0 0.0107879 -0.0135925 0
-0.0107333 -0.0136359 0 -0.00451419 0.0167597 0 0.0045263 0.0167686 0 -0.002
0.0173062 0 0.002 0.0173062 0 -0.0171658 0.00306667 0 -0.0122727 -0.0124125
0 0.00928347 -0.0147881 0 0.0123323 -0.0123652 0 -0.00923755 -0.0148246 0
0.0172162 0.00310601 0 -0.0154877 0.00821012 0 -0.00597213 0.0165208 0 0.00598764
0.0165323 0 0.0155453 0.00825477 0 -0.00319452 0.017324 0 0.00320133 0.017329
0 -0.0171658 -0.00408336 0 -0.000723266 0.0176555 0 0.000723266 0.0176555 0
0.0172162 -0.00404362 0 -0.0171658 0.00455044 0 0.00781802 -0.0159527 0 -0.00778421
-0.0159796 0 -0.0138571 -0.0111534 0 0.0139177 -0.0111052 0 0.0172162 0.0045897
0 -0.0154877 0.00924127 0 -0.00451419 0.0174994 0 0.0045263 0.0175084 0
0.0155453 0.00928585 0 -0.0171658 0.00592954 0 -0.00597213 0.0171533 0 0.00598764
0.0171648 0 0.0172162 0.00596872 0 0.00639053 -0.0170872 0 -0.00637208 -0.0171018
0 -0.0171658 -0.00622243 0 0.0172162 -0.00618257 0 -0.002 0.0182418 0
0.002 0.0182418 0 -0.0154877 -0.00985753 0 0.0155453 -0.00981172 0 -0.00319452
0.0181891 0 0.00320133 0.0181941 0 -0.0154877 0.0101997 0 0.0155453 0.0102442
0 -0.0171658 0.00721136 0 0.0172162 0.00725047 0 -0.000719385 0.0187075 0
0.000719385 0.0187075 0 -0.00758282 0.0171264 0 0.00759938 0.0171387 0 -0.00597213
0.0178373 0 0.00598764 0.0178488 0 -0.00451419 0.0182994 0 0.0045263 0.0183083
0 -0.005 -0.0181922 0 0.005 -0.0181922 0 -0.018893 -0.00073496 0
-0.018893 0.0011094 0 0.0189314 -0.000704684 0 0.0189314 0.0011396 0 -0.0154877
0.0110905 0 -0.018893 -0.0027193 0 -0.018893 0.00282365 0 -0.0171658 0.00840275
0 0.0189314 -0.00268894 0 0.0155453 0.0111349 0 0.0189314 0.00285377 0
-0.00344538 -0.0188361 0 0.00344538 -0.0188361 0 -0.0171658 -0.00852385 0 0.0172162
0.00844179 0 0.0172162 -0.00848386 0 -0.00758282 0.0177113 0 0.00759938 0.0177235
0 -0.0122727 -0.0149021 0 0.0123323 -0.0148546 0 -0.00175719 -0.0192397 0
[...]
CELL_DATA 15677
FIELD attributes 1
U 3 15677 float
-0.30487 10.2652 0 0.190475 10.9192 0 -0.101143 9.44667 0 0.0315567 10.9901
0 0.118845 10.7323 0 -0.0119272 8.75836 0 0.0455278 11.0075 0
0.0144841 10.9815 0 0.0577131 10.4719 0 0.0115305 8.22935 0 0.046695
11.0122 0 0.0433905 11.0311 0 0.026093 10.9286 0 0.0319077 10.1908
0 0.0113234 7.85613 0 0.0440121 11.0135 0 0.0424059 11.0439 0
0.042808 11.0209 0 0.0332379 10.8603 0 0.0213713 9.90294 0 0.00644159
7.61196 0 0.0413772 11.0136 0 0.0404472 11.0462 0 0.0402096 11.0448
0 0.039895 11.0049 0 0.0328243 10.7692 0 0.0159527 9.63762 0
0.00250532 7.45878 0 0.0386366 11.0131 0 0.0389902 11.0453 0 0.0393853
11.0533 0 0.0385048 11.0445 0 0.0358524 10.9826 0 0.0288599 10.6571
0 0.0121633 9.41249 0 0.000563129 7.36227 0 0.0356113 11.0123 0
0.0373747 11.0435 0 0.0387168 11.056 0 0.0384531 11.0587 0 0.0360554
11.0421 0 0.0318448 10.9528 0 0.0240814 10.5327 0 0.00902259 9.2375
0 1.65966e-05 7.30015 0 0.0323298 11.0113 0 0.0354648 11.0411 0
0.0376279 11.0557 0 0.037893 11.064 0 0.0361248 11.0634 0 0.0329219
11.0364 0 0.0284244 10.9174 0 0.0194912 10.3981 0 0.006461 9.10675
0 -0.000237285 7.25757 0 0.0288541 11.0101 0 0.0333339 11.0382 0
0.0362307 11.054 0 0.036948 11.0652 0 0.0355667 11.0717 0 0.0329702
11.0663 0 0.0298266 11.029 0 0.0254192 10.8759 0 0.0154654 10.2695
0 0.00440676 9.0119 0 -0.000467982 7.2331 0 0.0252618 11.0089 0
0.0310049 11.0348 0 0.0345741 11.0514 0 0.0357305 11.0644 0 0.0346583
11.0746 0 0.0324184 11.0785 0 0.029784 11.0688 0 0.0268391 11.0213
0 0.0222133 10.8306 0 0.011844 10.1594 0 0.00266605 8.94599 0
-0.000671862 7.22157 0 0.0215485 11.0077 0 0.0284832 11.0312 0 0.0326504
11.0481 0 0.034248 11.0623 0 0.0334611 11.0747 0 0.0314743 11.0833
0 0.0291247 11.0853 0 0.0266379 11.0725 0 0.0235519 11.0144 0
0.0185179 10.7846 0 0.00844918 10.0706 0 0.0011002 8.90395 0 -0.00108773
7.22358 0 0.0178424 11.0065 0 0.0258745 11.0273 0 0.0304456 11.0442
0 0.0324844 11.0592 0 0.031979 11.0731 0 0.0301923 11.0844 0
0.0279934 11.0924 0 0.0257177 11.0938 0 0.0231526 11.0785 0 0.0198654
11.009 0 0.0143972 10.7411 0 0.00514032 10.0054 0 -0.000543099 8.88299
0 -0.00170847 7.23889 0 0.0146458 11.0053 0 0.0231893 11.0233 0
0.0279868 11.0398 0 0.0304222 11.0554 0 0.0302032 11.0703 0 0.0285882
11.0835 0 0.026461 11.0948 0 0.0242272 11.1033 0 0.0218257 11.105
0 0.0191301 11.0875 0 0.0156747 11.0063 0 0.00992109 10.7052 0
0.00166607 9.96289 0 -0.00221403 8.88111 0 -0.0023756 7.26785 0 0.0120656
11.0043 0 0.0206448 11.0196 0 0.0253093 11.0351 0 0.0280479 11.0508
0 0.0281175 11.0666 0 0.0266575 11.0811 0 0.0245527 11.0946 0
0.0222584 11.107 0 0.019818 11.117 0 0.0172269 11.1197 0 0.0143857
11.1005 0 0.0107761 11.0078 0 0.00503299 10.6802 0 -0.00191543 9.94219
0 -0.00410403 8.89755 0 -0.00320219 7.3106 0 0.00991138 11.0034 0
0.0183796 11.0164 0 0.0227093 11.0306 0 0.0253667 11.0457 0 0.025702
11.062 0 0.0243831 11.0776 0 0.0222661 11.0926 0 0.0198401 11.1075
0 0.0172369 11.122 0 0.0145256 11.1342 0 0.011732 11.1386 0
0.00873423 11.1184 0 0.00507716 11.0155 0 -0.000330433 10.6684 0 -0.00578077
9.94224 0 -0.00619334 8.93129 0 -0.00411928 7.36735 0 0.00824208 11.0027
0 0.0163573 11.0136 0 0.0203595 11.0266 0 0.0226889 11.0407 0
0.0229462 11.0566 0 0.021744 11.0731 0 0.0195854 11.0893 0 0.0169701
11.1059 0 0.0141096 11.1232 0 0.0111318 11.1406 0 0.00813575 11.1559
0 0.00513916 11.1628 0 0.0020634 11.1422 0 -0.00145754 11.0309 0
-0.00619799 10.6712 0 -0.00997032 9.9621 0 -0.00849375 8.98228 0 -0.00511713
7.43786 0 0.00685793 11.0021 0 0.0144544 11.0112 0 0.0181978 11.0231
0 0.0202156 11.0362 0 0.0201532 11.0511 0 0.0187253 11.0675 0
0.0164908 11.0848 0 0.0136338 11.1028 0 0.0104311 11.1219 0 0.00706902
11.1424 0 0.00369773 11.1635 0 0.000418839 11.1828 0 -0.00270819 11.1931
0 -0.00570866 11.1731 0 -0.00884912 11.0557 0 -0.0126074 10.6899 0
-0.014517 10.0008 0 -0.0109899 9.04973 0 -0.006183 7.52196 0 0.00572118
11.0017 0 0.012767 11.0093 0 0.0161806 11.0201 0 0.0178883 11.0321
0 0.0175447 11.0461 0 0.0156544 11.0617 0 0.0129689 11.0791 0
0.00981473 11.0982 0 0.0061862 11.1188 0 0.00232746 11.1414 0 -0.00156138
11.166 0 -0.00532341 11.1917 0 -0.00881588 11.2157 0 -0.0119293 11.2303
0 -0.0146379 11.212 0 -0.0171262 11.0911 0 -0.0195737 10.7246 0
-0.0194177 10.0578 0 -0.0136747 9.13316 0 -0.00729849 7.61896 0 0.00478795
11.0014 0 0.0112454 11.0078 0 0.014325 11.0174 0 0.0157095 11.0285
0 0.0150719 11.0414 0 0.0127818 11.0562 0 0.00939989 11.0729 0
0.00550568 11.0922 0 0.00136123 11.114 0 -0.00311165 11.1381 0 -0.00765931
11.165 0 -0.0120724 11.1946 0 -0.0161541 11.2258 0 -0.019713 11.2556
0 -0.022604 11.2753 0 -0.0247659 11.26 0 -0.02629 11.1383 0
-0.0270823 10.7758 0 -0.0246531 10.1321 0 -0.0165247 9.23179 0 -0.00846437
7.72822 0 0.00404738 11.0011 0 0.00987788 11.0066 0 0.0126347 11.0152
0 0.0136856 11.0253 0 0.0127535 11.0372 0 0.0100625 11.051 0
0.00607428 11.0669 0 0.00117319 11.0855 0 -0.00404222 11.1076 0 -0.00926046
11.133 0 -0.0146213 11.1616 0 -0.019858 11.1937 0 -0.0247226 11.2291
0 -0.028971 11.2667 0 -0.0323801 11.303 0 -0.0347878 11.3288 0
-0.0360953 11.3178 0 -0.0363108 11.1977 0 -0.0351073 10.8431 0 -0.0302031
10.2229 0 -0.0195246 9.3449 0 -0.00966008 7.84899 0 0.00347936 11.001
0 0.00871127 11.0056 0 0.0110959 11.0133 0 0.011824 11.0224 0
0.0106009 11.0333 0 0.00752359 11.0461 0 0.00294274 11.061 0 -0.00283624
11.0788 0 -0.00943439 11.1002 0 -0.0161072 11.1259 0 -0.0224599 11.1558
0 -0.0287155 11.1898 0 -0.0345685 11.2281 0 -0.0397251 11.2703 0
-0.0439104 11.3151 0 -0.0468911 11.3589 0 -0.0484918 11.3916 0 -0.0485911
11.386 0 -0.0471285 11.2699 0 -0.0436066 10.9261 0 -0.0360283 10.3292
0 -0.0226328 9.47138 0 -0.0108552 7.98006 0 0.00303899 11.0008 0
0.0077564 11.0048 0 0.00975216 11.0117 0 0.0101229 11.0199 0 0.00862383
11.0298 0 0.00518359 11.0415 0 4.02196e-05 11.0553 0 -0.00658368 11.0721
0 -0.0143911 11.0926 0 -0.022899 11.1175 0 -0.0311524 11.1478 0
-0.0386599 11.1833 0 -0.0457413 11.2236 0 -0.0520455 11.269 0 -0.0572479
11.3189 0 -0.0610667 11.3718 0 -0.0632668 11.4236 0 -0.0636802 11.464
0 -0.0621821 11.465 0 -0.0586627 11.3548 0 -0.0525154 11.024 0
-0.042057 10.4497 0 -0.0258003 9.60999 0 -0.0120361 8.12018 0 0.00269141
11.0007 0 0.00697122 11.0043 0 0.00863499 11.0105 0 0.00864444 11.0178
0 0.00682686 11.0266 0 0.00305627 11.0372 0 -0.00260672 11.0499 0
-0.0100258 11.0655 0 -0.0189904 11.0848 0 -0.0291079 11.1088 0 -0.0397379
11.1382 0 -0.0496577 11.1741 0 -0.0582619 11.2161 0 -0.0660009 11.2638
0 -0.0724935 11.3171 0 -0.0774098 11.3755 0 -0.0804745 11.4371 0
-0.0814759 11.4977 0 -0.0802718 11.5464 0 -0.0767558 11.5547 0 -0.0707943
11.4522 0 -0.0617257 11.1359 0 -0.0482313 10.5831 0 -0.0289894 9.75937
0 -0.0131918 8.26804 0 0.00241274 11.0006 0 0.006323 11.0038 0
0.00771218 11.0095 0 0.00742545 11.016 0 0.00528124 11.0238 0 0.00115076
11.0333 0 -0.00497842 11.0448 0 -0.0131278 11.0591 0 -0.023179 11.077
0 -0.0348352 11.0997 0 -0.0475547 11.128 0 -0.0604894 11.1629 0
-0.0720861 11.2054 0 -0.0816227 11.2551 0 -0.0897423 11.3111 0 -0.0960611
11.3732 0 -0.100262 11.4407 0 -0.102106 11.5117 0 -0.101426 11.5814
0 -0.0981375 11.6389 0 -0.0921814 11.6552 0 -0.0834007 11.5615 0
-0.071131 11.2605 0 -0.0544786 10.7281 0 -0.0321642 9.91807 0 -0.0143015
8.42224 0 0.00218627 11.0006 0 0.00578363 11.0035 0 0.00694393 11.0087
0 0.00642576 11.0146 0 0.00402412 11.0215 0 -0.00045577 11.0298 0
-0.00706088 11.0399 0 -0.0158628 11.0528 0 -0.0269122 11.0693 0 -0.0400147
11.0903 0 -0.054734 11.1172 0 -0.0703258 11.1508 0 -0.0856806 11.1922
0 -0.0988585 11.2425 0 -0.109042 11.3008 0 -0.117149 11.366 0
-0.122819 11.4377 0 -0.125781 11.515 0 -0.125861 11.5957 0 -0.122978
11.6749 0 -0.117117 11.7413 0 -0.108279 11.7661 0 -0.0963417 11.6821
0 -0.0806437 11.3965 0 -0.0607196 10.8832 0 -0.0352861 10.0845 0
-0.015354 8.58131 0 0.00200006 11.0005 0 0.00533195 11.0032 0 0.00630062
11.008 0 0.00560211 11.0134 0 0.00300954 11.0196 0 -0.00173056 11.0268
0 -0.00876896 11.0355 0 -0.0182112 11.0468 0 -0.0301545 11.0616 0
-0.0445895 11.0809 0 -0.0611936 11.1059 0 -0.0793351 11.1379 0 -0.0980095
11.178 0 -0.115798 11.227 0 -0.130333 11.2861 0 -0.140744 11.3541
0 -0.148319 11.4293 0 -0.152757 11.5112 0 -0.153871 11.5986 0
-0.15159 11.6893 0 -0.145935 11.778 0 -0.137 11.8533 0 -0.124864
11.8867 0 -0.109454 11.8128 0 -0.0901504 11.5424 0 -0.06688 11.0466
0 -0.0383223 10.2572 0 -0.0163513 8.74387 0 0.00184537 11.0004 0
0.00495133 11.0029 0 0.00575877 11.0074 0 0.00492085 11.0124 0 0.00218959
11.0179 0 -0.00272965 11.0243 0 -0.0100771 11.0317 0 -0.020077 11.0413
0 -0.0328786 11.0542 0 -0.0485126 11.0716 0 -0.0668607 11.0945 0
-0.0874148 11.1243 0 -0.109286 11.1625 0 -0.131157 11.21 0 -0.151266
11.2678 0 -0.166791 11.3368 0 -0.176869 11.4154 0 -0.18326 11.5013
0 -0.185772 11.5938 0 -0.184347 11.6917 0 -0.179054 11.7923 0
-0.170055 11.8904 0 -0.157551 11.9745 0 -0.141736 12.0163 0 -0.122586
11.9525 0 -0.09954 11.6969 0 -0.0728974 11.2169 0 -0.0412525 10.4345
0 -0.0172091 8.90879 0 0.00171574 11.0004 0 0.00462871 11.0027 0
0.00529975 11.007 0 0.00435505 11.0115 0 0.00152576 11.0166 0 -0.00350972
11.0221 0 -0.0110577 11.0285 0 -0.0214453 11.0365 0 -0.0349739 11.0472
0 -0.0517475 11.0623 0 -0.0716743 11.0829 0 -0.094472 11.1103 0
-0.119384 11.1461 0 -0.145204 11.1915 0 -0.170258 11.2478 0 -0.192431
11.3154 0 -0.208418 11.3953 0 -0.217435 11.4852 0 -0.221856 11.5824
0 -0.221657 11.6859 0 -0.216952 11.7942 0 -0.207981 11.9045 0
-0.195061 12.0117 0 -0.17853 12.104 0 -0.158694 12.154 0 -0.135592
12.1 0 -0.108713 11.8583 0 -0.0787287 11.3924 0 -0.0440082 10.6151
0 -0.0185216 9.07331 0 0.00160627 11.0004 0 0.00435372 11.0026 0
0.00490856 11.0066 0 0.00388323 11.0108 0 0.000987156 11.0154 0 -0.00411648
11.0202 0 -0.0117815 11.0257 0 -0.0224117 11.0323 0 -0.0364389 11.0411
0 -0.0541624 11.0535 0 -0.0755849 11.0713 0 -0.100428 11.096 0
-0.128183 11.129 0 -0.157778 11.1718 0 -0.187642 11.2257 0 -0.215724
11.2917 0 -0.239519 11.3703 0 -0.255254 11.4621 0 -0.262336 11.564
0 -0.2639 11.6728 0 -0.260137 11.7873 0 -0.251376 11.9058 0
-0.238055 12.0255 0 -0.220665 12.1411 0 -0.199687 12.2412 0 -0.17554
12.2986 0 -0.148334 12.254 0 -0.117598 12.0251 0 -0.0843028 11.5717
0 -0.0472213 10.7969 0 -0.0197496 9.26714 0 0.00151316 11.0003 0
0.00411814 11.0024 0 0.00457514 11.0063 0 0.00348806 11.0102 0 0.000549096
11.0144 0 -0.00458651 11.0186 0 -0.0123056 11.0232 0 -0.0230673 11.0286
0 -0.0374008 11.0357 0 -0.0557726 11.0457 0 -0.0784328 11.0602 0
-0.105216 11.0816 0 -0.135583 11.1114 0 -0.168734 11.151 0 -0.203225
11.202 0 -0.237086 11.2656 0 -0.267836 11.3426 0 -0.292624 11.4332
0 -0.307223 11.5375 0 -0.311363 11.652 0 -0.309087 11.7725 0
-0.300859 11.8978 0 -0.28725 12.0262 0 -0.268926 12.1547 0 -0.24656
12.278 0 -0.220772 12.385 0 -0.192088 12.4492 0 -0.160701 12.413
0 -0.126102 12.1959 0 -0.0900038 11.7527 0 -0.0500496 11.0001 0
-0.0200725 9.46633 0 0.00143341 11.0003 0 0.00391547 11.0023 0 0.00428812
11.006 0 0.00315553 11.0097 0 0.000191871 11.0135 0 -0.00494895 11.0173
0 -0.0126755 11.0211 0 -0.0234853 11.0255 0 -0.0379779 11.031 0
-0.0567461 11.0388 0 -0.080252 11.0503 0 -0.108639 11.0677 0 -0.141496
11.0935 0 -0.177937 11.1295 0 -0.216818 11.1769 0 -0.256274 11.2373
0 -0.293875 11.3119 0 -0.32674 11.401 0 -0.351701 11.5044 0
-0.364116 11.622 0 -0.364184 11.7492 0 -0.357014 11.8813 0 -0.343391
12.0171 0 -0.324162 12.1547 0 -0.300227 12.2912 0 -0.272439 12.4214
0 -0.241546 12.5343 0 -0.208181 12.6043 0 -0.17257 12.5758 0
-0.134429 12.3688 0 -0.0954226 11.9552 0 -0.0518933 11.223 0 -0.0204749
9.6611 0 0.00136456 11.0003 0 0.00374053 11.0022 0 0.00403994 11.0057
0 0.00287579 11.0092 0 -0.000100309 11.0127 0 -0.00522694 11.0161 0
-0.0129271 11.0193 0 -0.0237237 11.0227 0 -0.0382653 11.0269 0 -0.0572366
11.0327 0 -0.081262 11.0415 0 -0.110751 11.0552 0 -0.145673 11.0762
0 -0.185275 11.1074 0 -0.228254 11.1507 0 -0.273057 11.2072 0
-0.317339 11.2784 0 -0.35822 11.3651 0 -0.39244 11.4674 0 -0.416551
11.5844 0 -0.425575 11.7156 0 -0.420345 11.8555 0 -0.407193 11.999
0 -0.387258 12.1447 0 -0.36168 12.2908 0 -0.33159 12.4343 0
-0.29801 12.5703 0 -0.261803 12.6881 0 -0.223661 12.7631 0 -0.184008
12.7408 0 -0.142777 12.5626 0 -0.100241 12.1781 0 -0.0539125 11.442
0 -0.0209059 9.84936 0 0.00130526 11.0003 0 0.00358876 11.0021 0
0.00382563 11.0055 0 0.00263884 11.0088 0 -0.000339911 11.0121 0 -0.00543883
11.015 0 -0.0130889 11.0177 0 -0.0238283 11.0203 0 -0.0383378 11.0232
0 -0.0573675 11.0273 0 -0.0816617 11.0337 0 -0.111836 11.044 0
-0.148192 11.0605 0 -0.190433 11.0859 0 -0.237382 11.1237 0 -0.287225
11.1757 0 -0.337945 11.2427 0 -0.386706 11.3259 0 -0.430179 11.4259
0 -0.464759 11.5422 0 -0.486814 11.6734 0 -0.491112 11.8184 0
-0.479303 11.9709 0 -0.459076 12.1251 0 -0.431954 12.2799 0 -0.399364
12.4334 0 -0.362658 12.5829 0 -0.323006 12.7236 0 -0.28134 12.8453
0 -0.238482 12.9237 0 -0.195718 12.9258 0 -0.150698 12.7764 0
-0.104851 12.3978 0 -0.055854 11.6546 0 -0.0212649 10.0297 0 0.00345602
11.0021 0 0.00123354 11.0003 0 0.00363898 11.0053 0 0.0024371 11.0085
0 -0.000536909 11.0115 0 -0.00559914 11.0141 0 -0.013183 11.0163 0
-0.0238347 11.0181 0 -0.0382544 11.02 0 -0.0572362 11.0226 0 -0.0816107
11.0268 0 -0.112149 11.0341 0 -0.14941 11.0464 0 -0.193506 11.0664
0 -0.243803 11.0974 0 -0.298581 11.143 0 -0.355428 11.205 0
-0.411849 11.2838 0 -0.464496 11.3804 0 -0.509621 11.4948 0 -0.543351
11.6258 0 -0.561978 11.7714 0 -0.560125 11.9302 0 -0.540434 12.0947
0 -0.512078 12.259 0 -0.476961 12.4219 0 -0.436787 12.5817 0
-0.3931 12.736 0 -0.347175 12.8804 0 -0.300024 13.0044 0 -0.253862
13.104 0 -0.207173 13.1302 0 -0.157915 12.9875 0 -0.109026 12.612
0 -0.0575151 11.8591 0 -0.0215332 10.2018 0 0.0034735 11.0052 0
0.00330001 11.002 0 0.00114674 11.0002 0 0.00226375 11.0082 0 -0.000699265
11.011 0 -0.005719 11.0133 0 -0.0132268 11.015 0 -0.0237707 11.0163
0 -0.0380608 11.0172 0 -0.0569187 11.0184 0 -0.0812349 11.0207 0
-0.111894 11.0252 0 -0.149652 11.0338 0 -0.194944 11.0488 0 -0.247628
11.0732 0 -0.306618 11.1109 0 -0.369536 11.1657 0 -0.43332 11.2392
0 -0.494969 11.3313 0 -0.550639 11.4425 0 -0.596229 11.5721 0
-0.6277 11.7184 0 -0.641396 11.8786 0 -0.631914 12.0507 0 -0.60306
12.2266 0 -0.565588 12.3999 0 -0.521765 12.5697 0 -0.473543 12.7346
0 -0.422605 12.8926 0 -0.370311 13.039 0 -0.319562 13.1831 0
-0.269187 13.3032 0 -0.217494 13.3321 0 -0.164373 13.1937 0 -0.112608
12.8187 0 -0.0588846 12.0548 0 -0.0217034 10.365 0 0.00210952 11.0079
0 0.00329153 11.005 0 0.00310269 11.0019 0 0.00106354 11.0002 4.2939e-19
-0.000834833 11.0105 0 -0.00580699 11.0126 0 -0.0132335 11.014 0 -0.0236578
11.0146 0 -0.0377921 11.0148 0 -0.0564738 11.0148 0 -0.0806324 11.0153
0 -0.111233 11.0174 0 -0.149179 11.0226 0 -0.195153 11.033 0
-0.24941 11.0514 0 -0.311449 11.0814 0 -0.379622 11.127 0 -0.4508
11.1926 0 -0.521192 11.2791 0 -0.587311 11.3858 0 -0.644869 11.5127
0 -0.689501 11.6583 0 -0.717135 11.8201 0 -0.724307 11.9947 0
-0.705711 12.1795 0 -0.666478 12.3657 0 -0.619001 12.5469 0 -0.56588
12.7224 0 -0.509253 12.8913 0 -0.450902 13.0514 0 -0.394623 13.2173
0 -0.339281 13.3804 0 -0.28296 13.5001 0 -0.22672 13.5297 0
-0.169964 13.3932 0 -0.115619 13.0172 0 -0.0599812 12.2412 0 -0.0217791
10.5191 0 -0.000958293 11.0102 0 0.00195805 11.0076 0 0.00307601 11.0047
1.87987e-18 0.00291145 11.0017 -1.3595e-18 0.000983508 11.0002 -8.7144e-19 -0.00587146 11.012 0
-0.0132125 11.013 0 -0.0235118 11.0132 0 -0.0374754 11.0126 0 -0.0559468
11.0116 0 -0.0798791 11.0106 0 -0.110292 11.0105 0 -0.148195 11.0127
0 -0.19446 11.019 0 -0.249652 11.0319 0 -0.313748 11.0547 0
-0.385788 11.0913 0 -0.463464 11.1464 0 -0.542764 11.2242 0 -0.619143
11.3253 0 -0.688678 11.4479 0 -0.74672 11.5914 0 -0.788762 11.7535
0 -0.810845 11.9308 0 -0.809856 12.1193 0 -0.780704 12.3159 0
-0.729976 12.5113 0 -0.671736 12.699 0 -0.608848 12.8789 0 -0.543582
13.0502 0 -0.480746 13.2298 0 -0.419375 13.4145 0 -0.357045 13.5757
0 -0.295258 13.693 0 -0.234762 13.7211 0 -0.17471 13.585 0
-0.118102 13.2067 0 -0.0608306 12.4178 0 -0.0217726 10.6639 0 -0.00593448
11.0115 0 -0.00104111 11.0097 -3.8055e-18 0.00179017 11.0071 -1.97937e-18 0.00286633 11.0044
9.54329e-19 0.00272355 11.0016 -9.19342e-19 0.000906696 11.0002 0 -0.0131726 11.0122 0
-0.0233435 11.0119 0 -0.0371304 11.0107 0 -0.0553719 11.0087 0 -0.0790328
11.0064 0 -0.109168 11.0044 0 -0.146861 11.0039 0 -0.193125 11.0065
0 -0.248762 11.0144 0 -0.314131 11.0306 0 -0.38884 11.0589 0
-0.47138 11.1035 0 -0.55864 11.1696 0 -0.645636 11.2613 0 -0.727067
11.3784 0 -0.798667 11.5182 0 -0.855535 11.679 0 -0.893174 11.8578
0 -0.907907 12.0504 0 -0.897124 12.252 0 -0.856059 12.4593 0
-0.792862 12.6626 0 -0.723249 12.8555 0 -0.650262 13.0381 0 -0.579903
13.2291 0 -0.511323 13.4274 0 -0.441748 13.6095 0 -0.37292 13.767
0 -0.306023 13.88 0 -0.241639 13.9053 0 -0.178672 13.7684 0
-0.120104 13.3868 0 -0.0614631 12.5844 0 -0.0216985 10.7996 0 -0.0131464
11.0114 0 -0.00590218 11.0108 8.00934e-18 -0.0010902 11.0091 0 0.00162914 11.0067
2.00818e-18 0.00266373 11.0042 5.85357e-22 0.00253955 11.0015 0 0.000833091 11.0002 0
-0.0231622 11.0108 0 -0.0367696 11.009 0 -0.0547739 11.0062 0 -0.0781377
11.0027 0 -0.107935 10.999 0 -0.145302 10.9961 0 -0.19135 10.9954
0 -0.247063 10.9988 0 -0.313097 11.0091 0 -0.389522 11.0296 0
-0.4755 11.0645 0 -0.568824 11.1187 0 -0.665476 11.1973 0 -0.759422
11.3046 0 -0.844646 11.4392 0 -0.916667 11.5971 0 -0.970481 11.7758
0 -1.00177 11.9712 0 -1.00732 12.1784 0 -0.985158 12.3922 0
-0.930953 12.6089 0 -0.854479 12.8185 0 -0.773042 13.0148 0 -0.694223
13.2176 0 -0.617297 13.4274 0 -0.539069 13.623 0 -0.46177 13.8008
0 -0.386874 13.9526 0 -0.315278 14.0602 0 -0.247429 14.0817 0
-0.181915 13.943 0 -0.121678 13.5573 0 -0.0619091 12.7412 0 -0.0215694
10.9263 0 -0.0230153 11.0098 0 -0.012948 11.0106 5.01246e-22 -0.00575136 11.01
0 -0.00113716 11.0085 -2.11329e-18 0.00147701 11.0063 4.18994e-22 0.00246837 11.004 0
0.00235952 11.0014 0 0.000762686 11.0001 0 -0.0364028 11.0075 0 -0.0541679
11.004 0 -0.0772249 10.9994 0 -0.106651 10.9943 0 -0.143613 10.9892
0 -0.189294 10.9856 0 -0.24481 10.985 0 -0.311048 10.9898 0
-0.388444 11.0032 0 -0.476711 11.0291 0 -0.574418 11.0722 0 -0.678557
11.1375 0 -0.7841 11.2305 0 -0.883913 11.3549 0 -0.971342 11.5083
0 -1.04187 11.6851 0 -1.09057 11.8818 0 -1.11349 12.0935 0
-1.10803 12.3145 0 -1.07301 12.5391 0 -1.0046 12.7636 0 -0.914217
12.9778 0 -0.826063 13.1949 0 -0.739665 13.4169 0 -0.651362 13.624
0 -0.563957 13.815 0 -0.479427 13.9866 0 -0.398946 14.1317 0
-0.323121 14.233 0 -0.252224 14.2499 0 -0.18451 14.1085 0 -0.122872
13.718 0 -0.0621947 12.8881 0 -0.0213963 11.0444 0 -0.0360982 11.0062
0 -0.0225898 11.0087 -4.4294e-18 -0.0125029 11.0096 0 -0.0056052 11.0092 0
-0.00117085 11.0079 6.42854e-18 0.00133369 11.006 0 0.00228009 11.0037 0 0.0021836
11.0013 1.9157e-18 0.000695486 11.0001 0 -0.0535641 11.002 0 -0.076313 10.9965
0 -0.105354 10.99 0 -0.141864 10.9831 0 -0.187075 10.9769 0
-0.242201 10.9727 0 -0.308299 10.9727 0 -0.386094 10.9797 0 -0.475745
10.9973 0 -0.576469 11.0299 0 -0.686139 11.0826 0 -0.800834 11.1609
0 -0.914432 11.2699 0 -1.01867 11.4131 0 -1.10641 11.5863 0
-1.1733 11.7825 0 -1.21469 11.997 0 -1.2272 12.2243 0 -1.209
12.458 0 -1.15979 12.692 0 -1.07626 12.9224 0 -0.97803 13.1584
0 -0.881054 13.3954 0 -0.781197 13.6149 0 -0.681996 13.8172 0
-0.585979 14.0016 0 -0.494772 14.1659 0 -0.409244 14.3035 0 -0.329669
14.3978 0 -0.256122 14.4094 0 -0.186532 14.2647 0 -0.123736 13.869
0 -0.0623454 13.0256 0 -0.0211898 11.1541 0 -0.0530591 11.0003 0
-0.03537 11.0047 0 -0.0217329 11.0074 -4.84064e-18 -0.0120745 11.0086 -4.67154e-18 -0.00543969
11.0085 -9.01103e-18 -0.00119119 11.0074 0 0.00119926 11.0056 -4.18495e-18 0.0020991 11.0035
-4.03073e-18 0.00201177 11.0013 1.93999e-18 0.000631346 11.0001 0 -0.0754124 10.994 0
-0.104067 10.9863 0 -0.140108 10.9777 0 -0.184786 10.9691 0 -0.239385
10.9617 0 -0.305095 10.9574 0 -0.38286 10.9586 0 -0.473193 10.9687
0 -0.575846 10.9917 0 -0.68944 11.0326 0 -0.811038 11.0967 0
-0.935707 11.1896 0 -1.05616 11.3164 0 -1.16305 11.4797 0 -1.2489