#           x             T
    -0.118947       349.559
    -0.118121       349.554
    -0.117174       349.549
    -0.116087       349.544
     -0.11484       349.542
    -0.113408        349.54
    -0.111764        349.54
    -0.109877        349.54
    -0.107712        349.54
    -0.105227       349.542
    -0.102374       349.543
   -0.0990995       349.546
   -0.0953416       349.551
   -0.0914285        349.56
   -0.0876191       349.575
   -0.0838095       349.603
        -0.08       349.657
   -0.0761904       349.764
   -0.0723809        349.98
   -0.0685715       350.416
   -0.0649271       351.246
    -0.061624       352.683
    -0.058655       354.961
   -0.0559862        358.25
   -0.0535874       362.534
   -0.0514313       367.589
   -0.0494932       373.036
   -0.0477512       378.414
   -0.0461853       383.245
   -0.0447779       387.206
   -0.0435128       390.178
   -0.0423757       392.223
   -0.0413536       393.491
   -0.0404349       394.153
     -0.03925       394.213
     -0.03775       393.259
     -0.03625       391.366
     -0.03475        389.02
     -0.03325       386.671
     -0.03175       384.561
     -0.03025       382.759
     -0.02875       381.257
     -0.02725        380.02
     -0.02575       379.015
   -0.0243994       378.236
   -0.0231362       377.616
    -0.021743       377.042
   -0.0202065         376.5
   -0.0189203       376.101
   -0.0180315       375.847
   -0.0166427       375.483
   -0.0145812       374.998
    -0.012414       374.562
   -0.0110231       374.314
   -0.0100402       374.148
  -0.00847254       373.901
  -0.00677747       373.677
  -0.00524316       373.515
  -0.00385435       373.401
  -0.00288618       373.339
  -0.00228892       373.309
  -0.00133333       373.275
            0       373.256
   0.00133333        373.27
     0.002289         373.3
   0.00288966       373.329
   0.00386381       373.389
   0.00525697       373.502
   0.00679351       373.662
    0.0084882       373.884
    0.0100473        374.13
    0.0110276       374.296
    0.0124188       374.547
    0.0145859       374.988
    0.0166548       375.486
    0.0180384       375.858
    0.0189282        376.12
    0.0202225       376.534
    0.0217568       377.093
    0.0231456       377.683
    0.0244027       378.319
      0.02575       379.116
      0.02725       380.144
      0.02875       381.403
      0.03025       382.924
      0.03175       384.744
      0.03325       386.865
      0.03475       389.214
      0.03625       391.539
      0.03775       393.383
      0.03925       394.274
    0.0404349       394.164
    0.0413536       393.466
    0.0423757       392.168
    0.0435128       390.097
    0.0447779       387.105
    0.0461853       383.134
    0.0477511       378.305
    0.0494932        372.94
    0.0514312       367.511
    0.0535874       362.476
    0.0559862        358.21
    0.0586549       354.937
     0.061624       352.669
    0.0649271       351.239
    0.0685714       350.413
    0.0723809       349.978
    0.0761904       349.763
         0.08       349.656
    0.0838095       349.603
     0.087619       349.575
    0.0914285        349.56
    0.0953419       349.551
    0.0991002       349.546
     0.102374       349.543
     0.105227       349.541
     0.107713        349.54
     0.109878        349.54
     0.111765        349.54
     0.113408        349.54
      0.11484       349.541
     0.116088       349.544
     0.117175       349.548
     0.118122       349.554
     0.118947       349.559
     0.119665       349.563
