#           x             T
    -0.118947       349.893
    -0.118121       349.888
    -0.117174       349.882
    -0.116087       349.876
     -0.11484       349.872
    -0.113408       349.869
    -0.111764       349.867
    -0.109877       349.866
    -0.107712       349.865
    -0.105227       349.864
    -0.102374       349.864
   -0.0990995       349.864
   -0.0953416       349.866
   -0.0914285       349.871
   -0.0876191       349.882
   -0.0838095       349.904
        -0.08       349.947
   -0.0761904       350.033
   -0.0723809         350.2
   -0.0685715       350.526
   -0.0649271       351.122
    -0.061624       352.112
    -0.058655       353.628
   -0.0559862       355.768
   -0.0535874       358.537
   -0.0514313       361.835
   -0.0494932       365.487
   -0.0477512       369.306
   -0.0461853       373.124
   -0.0447779       376.769
   -0.0435128       380.106
   -0.0423757       383.048
   -0.0413536       385.555
   -0.0404349       387.761
     -0.03925       390.092
     -0.03775       392.426
     -0.03625       394.332
     -0.03475       395.734
     -0.03325       396.692
     -0.03175        397.28
     -0.03025       397.562
     -0.02875       397.609
     -0.02725       397.485
     -0.02575       397.247
   -0.0243994       396.956
   -0.0231362       396.637
    -0.021743         396.3
   -0.0202065       395.971
   -0.0189203       395.718
   -0.0180315       395.562
   -0.0166427       395.347
   -0.0145812       395.093
    -0.012414       394.938
   -0.0110231       394.872
   -0.0100402       394.841
  -0.00847254       394.816
  -0.00677747       394.827
  -0.00524316       394.868
  -0.00385435       394.925
  -0.00288618       394.975
  -0.00228892       395.012
  -0.00133333       395.072
            0       395.164
   0.00133333       395.262
     0.002289       395.334
   0.00288966       395.382
   0.00386381       395.455
   0.00525697       395.555
   0.00679351       395.652
    0.0084882        395.71
    0.0100473       395.723
    0.0110276       395.718
    0.0124188       395.684
    0.0145859       395.593
    0.0166548       395.372
    0.0180384       395.211
    0.0189282       395.101
    0.0202225       394.939
    0.0217568       394.743
    0.0231456       394.567
    0.0244027       394.424
      0.02575       394.295
      0.02725        394.19
      0.02875       394.135
      0.03025       394.152
      0.03175       394.268
      0.03325       394.525
      0.03475       394.958
      0.03625       395.575
      0.03775        396.32
      0.03925       396.952
    0.0404349       397.147
    0.0413536       396.902
    0.0423757       396.112
    0.0435128       394.547
    0.0447779       391.962
    0.0461853       388.133
    0.0477511       383.002
    0.0494932        376.88
    0.0514312       370.442
    0.0535874       364.458
    0.0559862       359.467
    0.0586549       355.712
     0.061624       353.155
    0.0649271       351.583
    0.0685714       350.701
    0.0723809        350.25
    0.0761904       350.033
         0.08       349.931
    0.0838095       349.882
     0.087619        349.86
    0.0914285       349.851
    0.0953419       349.847
    0.0991002       349.847
     0.102374       349.848
     0.105227       349.849
     0.107713        349.85
     0.109878       349.852
     0.111765       349.854
     0.113408       349.856
      0.11484       349.859
     0.116088       349.863
     0.117175       349.869
     0.118122       349.876
     0.118947       349.881
     0.119665       349.884
