# vtk DataFile Version 2.0
sampleSurface
ASCII
DATASET POLYDATA
POINTS 15978 float
-4.26165e-19 0.000133477 0 -4.18079e-19 -0.000798814 0 -4.33681e-19 0.001 0 -4.09379e-19 -0.00180187
0 -0.00181681 0.000361473 0 0.00181681 0.000361473 0 -0.00181396 -0.000575145 0
0.00181396 -0.000575145 0 -0.00181945 0.00123202 0 0.00181945 0.00123202 0 -0.00181089
-0.00158285 0 0.00181089 -0.00158285 0 -4.00018e-19 -0.00288105 0 -0.00180759 -0.00266704
0 0.00180759 -0.00266704 0 -0.00351565 8.15481e-05 0 0.00351565 8.15481e-05 0
-0.00351186 -0.000939823 0 0.00351186 -0.000939823 0 -0.00351918 0.00103087 0 0.00351918
0.00103087 0 -0.00352245 0.00191322 0 0.00352245 0.00191322 0 -3.89947e-19 -0.00404214
0 -0.00350777 -0.00203871 0 0.00350777 -0.00203871 0 -0.00180405 -0.00383352 0
0.00180405 -0.00383352 0 -0.00350338 -0.00322101 0 0.00350338 -0.00322101 0 -0.005
8.60602e-05 0 0.005 8.60602e-05 0 -0.005 -0.00103629 0 0.005 -0.00103629
0 -0.005 0.00112923 0 0.005 0.00112923 0 -3.79112e-19 -0.00529135 0
-0.00180023 -0.00508853 0 0.00180023 -0.00508853 0 -0.005 0.00209882 0 0.005
0.00209882 0 -0.005 -0.00224382 0 0.005 -0.00224382 0 -0.00349866 -0.00449304
0 0.00349866 -0.00449304 0 -0.005 0.003 0 0.005 0.003 0
-0.005 -0.003543 0 0.005 -0.003543 0 -0.00637208 2.82617e-05 0 0.00639053
4.25732e-05 0 -0.00637208 0.00114892 0 -0.00637208 -0.00117745 0 0.00639053 -0.00116311
0 0.00639053 0.00116321 0 -3.67455e-19 -0.00663538 0 -0.00179612 -0.00643879 0
0.00179612 -0.00643879 0 -0.00637208 0.00219052 0 0.00639053 0.00220479 0 -0.00349357
-0.00586162 0 0.00349357 -0.00586162 0 -0.00637208 -0.00247467 0 0.00639053 -0.00246031
0 -0.005 -0.00494079 0 0.005 -0.00494079 0 -0.00637208 0.00315864 0
0.00639053 0.00317289 0 -0.00637208 -0.00387036 0 0.00639053 -0.00385597 0 -0.00637208
0.00405846 0 0.00639053 0.00407269 0 -0.00778421 -7.99569e-05 0 0.00781802 -5.3679e-05
0 -0.00778421 0.00112388 0 0.00781802 0.00115011 0 -0.00778421 -0.00137517 0
0.00781802 -0.00134884 0 -3.54912e-19 -0.00808142 0 -0.0017917 -0.00789154 0 0.0017917
-0.00789154 0 -0.00778421 0.0022428 0 -0.0034881 -0.00733407 0 0.0034881 -0.00733407
0 0.00781802 0.00226899 0 -0.005 -0.00644467 0 0.005 -0.00644467 0
-0.00778421 -0.00276868 0 0.00781802 -0.0027423 0 -0.00637208 -0.00537197 0 0.00639053
-0.00535755 0 -0.00778421 0.00328278 0 0.00781802 0.00330893 0 -0.00778421 0.00424939
0 -0.00778421 -0.00426796 0 0.00781802 -0.00424152 0 0.00781802 0.00427551 0
-0.00923755 -0.000243565 0 0.00928347 -0.000207818 0 -0.00923755 0.00104957 0 -0.00778421
0.00514782 0 0.00928347 0.00108525 0 0.00781802 0.0051739 0 -0.00923755 -0.00163485
0 0.00928347 -0.00159903 0 -0.00637208 -0.00698755 0 0.00639053 -0.0069731 0
-0.005 -0.0080627 0 0.005 -0.0080627 0 -0.00923755 0.00225148 0 0.00928347
0.0022871 0 -0.00348222 -0.00891827 0 0.00348222 -0.00891827 0 -0.00178695 -0.00945455
0 0.00178695 -0.00945455 0 -3.41418e-19 -0.00963721 0 -0.00923755 -0.00313172 0
-0.00778421 -0.00588103 0 0.00781802 -0.00585453 0 0.00928347 -0.00309583 0 -0.00923755
0.0033686 0 0.00928347 0.00340416 0 -0.00923755 0.00440692 0 0.00928347 0.00444243
0 -0.00923755 -0.00474221 0 0.00928347 -0.00470623 0 -0.00923755 0.00537198 0
-0.0107333 -0.000467921 0 0.00928347 0.00540745 0 -0.0107333 0.000921062 0 0.0107879
-0.000425364 0 0.00639053 -0.00871127 0 -0.00637208 -0.00872575 0 0.0107879 0.000963535
0 -0.00778421 -0.00761653 0 0.00781802 -0.00758997 0 -0.0107333 -0.00196233 0
0.0107879 -0.00191968 0 -0.0107333 0.00221206 0 -0.005 -0.00980352 0 0.005
-0.00980352 0 0.0107879 0.00225445 0 -0.00923755 0.00626897 0 -0.00347589 -0.0106227
0 0.00347589 -0.0106227 0 0.00928347 0.00630439 0 -0.0107333 0.00341198 0
-0.00178183 -0.0111362 0 0.00178183 -0.0111362 0 -0.00923755 -0.00647493 0 0.00928347
-0.00643887 0 -3.26899e-19 -0.0113111 0 -0.0107333 -0.00357015 0 0.0107879 0.00345431
0 0.0107879 -0.00352741 0 -0.0107333 0.00452726 0 0.0107879 0.00456952 0
-0.0107333 -0.00530001 0 0.0107879 -0.00525717 0 -0.0107333 0.00556386 0 0.0107879
0.00560606 0 -0.000743369 0.0122055 0 0.000743369 0.0122055 0 -0.00778421 -0.00948375
0 0.00781802 -0.00945713 0 -0.0122727 0.000733061 0 -0.0122727 -0.000758799 0
0.0123323 -0.000712262 0 0.0123323 0.0007795 0 0.00639053 -0.0105814 0 -0.00637208
-0.0105959 0 -0.00923755 -0.00833916 0 -0.0122727 0.00211968 0 0.00928347 -0.00830301
0 -0.0122727 -0.00236389 0 0.0123323 0.00216603 0 0.0123323 -0.00231725 0
-0.0107333 0.00652734 0 0.0107879 0.00656947 0 -0.005 -0.0116765 0 0.005
-0.0116765 0 -0.0122727 0.00340848 0 0.0123323 0.00345474 0 -0.000741126 0.0128136
0 0.000741126 0.0128136 0 -0.0107333 -0.00716117 0 0.0107879 -0.00711821 0
-0.00346908 -0.0124565 0 0.00346908 -0.0124565 0 -0.0122727 -0.00409081 0 0.0123323
-0.00404405 0 -0.0107333 0.00742284 0 -0.00177633 -0.0129455 0 0.00177633 -0.0129455
0 -0.0122727 0.00460636 0 -3.11279e-19 -0.013112 0 0.0107879 0.00746492 0
-0.002 0.013 0 0.002 0.013 0 0.0123323 0.00465255 0 -0.0007387
0.0134712 0 0.0007387 0.0134712 0 -0.0122727 0.00571974 0 0.0123323 0.00576585
0 -0.0122727 -0.00594879 0 0.0123323 -0.00590191 0 -0.002 0.0135849 0
0.002 0.0135849 0 -0.0138571 0.000479853 0 -0.00923755 -0.0103449 0 0.00928347
-0.0103086 0 0.00781802 -0.011466 0 -0.00778421 -0.0114927 0 -0.0138571 -0.00112242
0 0.0139177 0.000527252 0 0.0139177 -0.00107491 0 -0.0138571 0.0019691 0
-0.0122727 0.00675458 0 0.0139177 0.00201639 0 0.0123323 0.00680062 0 -0.0107333
-0.00916358 0 0.00639053 -0.0125934 0 0.0107879 -0.0091205 0 -0.00637208 -0.012608
0 -0.0138571 -0.0028463 0 0.0139177 -0.00279868 0 -0.000736077 0.0141824 0
0.000736077 0.0141824 0 -0.00319452 0.0138829 0 0.00320133 0.0138879 0 -0.0138571
0.00335328 0 0.0139177 0.00340049 0 -0.002 0.0142174 0 0.002 0.0142174
0 -0.0122727 0.00771641 0 0.0123323 0.00776239 0 -0.005 -0.0136916 0
0.005 -0.0136916 0 -0.0138571 0.00463982 0 -0.0122727 -0.0079478 0 -0.0138571
-0.00470103 0 0.0123323 -0.00790078 0 0.0139177 -0.00465328 0 0.0139177 0.00468694
0 -0.00319452 0.0144678 0 0.00320133 0.0144728 0 -0.00346175 -0.0144295 0
0.00346175 -0.0144295 0 -0.00073324 0.0149515 0 0.00073324 0.0149515 0 -0.0122727
0.00861039 0 -0.00177041 -0.0148921 0 0.00177041 -0.0148921 0 -0.002 0.0149014
0 0.002 0.0149014 0 -0.0138571 0.0058356 0 -2.94473e-19 -0.0150496 0
0.0123323 0.00865631 0 0.0139177 0.00588264 0 -0.0138571 -0.00669653 0 0.0139177
-0.00664864 0 -0.00319452 0.0151003 0 0.00320133 0.0151053 0 -0.0154877 0.000155282
0 -0.0138571 0.00694702 0 -0.00451419 0.0148583 0 0.0045263 0.0148673 0
0.00928347 -0.0124665 0 -0.00923755 -0.0125028 0 0.0155453 0.000200444 0 -0.0154877
-0.00156548 0 0.0139177 0.00699399 0 -0.0154877 0.00175466 0 -0.0107333 -0.011318
0 0.0107879 -0.0112748 0 0.0155453 -0.00152021 0 0.0155453 0.00179972 0
0.00781802 -0.0136273 0 -0.00778421 -0.0136541 0 -0.002 0.0156411 0 0.002
0.0156411 0 -0.000730172 0.0157833 0 0.000730172 0.0157833 0 -0.0154877 0.0032412
0 -0.0154877 -0.00341685 0 0.0155453 0.00328617 0 -0.0122727 -0.0100985 0
0.0155453 -0.00337146 0 0.0123323 -0.0100514 0 -0.0138571 0.00798004 0 0.0139177
0.00802694 0 0.00639053 -0.0147581 0 -0.00637208 -0.0147727 0 -0.00451419 0.0154432
0 0.0045263 0.0154521 0 -0.00319452 0.0157843 0 0.00320133 0.0157893 0
-0.0154877 0.00462288 0 0.0155453 0.00466776 0 -0.0154877 -0.00540874 0 -0.0138571
-0.00884348 0 0.0155453 -0.00536322 0 0.0139177 -0.00879545 0 -0.0138571 0.00894019
0 -0.002 0.0164411 0 0.002 0.0164411 0 0.0139177 0.00898702 0
-0.0154877 0.00590709 0 -0.005 -0.0158596 0 0.005 -0.0158596 0 0.0155453
0.00595189 0 -0.00451419 0.0160757 0 -0.000726854 0.0166828 0 0.000726854 0.0166828
0 0.0045263 0.0160846 0 -0.00319452 0.016524 0 0.00320133 0.016529 0
-0.00345386 -0.0165523 0 0.00345386 -0.0165523 0 -0.0138571 0.0098326 0 -0.00597213
0.0159359 0 0.00598764 0.0159474 0 -0.0154877 0.00710071 0 0.0139177 0.00987937
0 -0.00176404 -0.0169864 0 0.00176404 -0.0169864 0 0.0155453 0.00714543 0
-2.76391e-19 -0.0171343 0 -0.0171658 -0.000247278 0 0.0172162 -0.000207752 0 -0.0171658
0.00147028 0 -0.0154877 -0.0075518 0 0.0155453 -0.00750615 0 0.0172162 0.00150971
0 -0.0171658 -0.00209519 0 0.0172162 -0.00205556 0 0.0107879 -0.0135925 0
-0.0107333 -0.0136359 0 -0.00451419 0.0167597 0 0.0045263 0.0167686 0 -0.002
0.0173062 0 0.002 0.0173062 0 -0.0171658 0.00306667 0 -0.0122727 -0.0124125
0 0.00928347 -0.0147881 0 0.0123323 -0.0123652 0 -0.00923755 -0.0148246 0
0.0172162 0.00310601 0 -0.0154877 0.00821012 0 -0.00597213 0.0165208 0 0.00598764
0.0165323 0 0.0155453 0.00825477 0 -0.00319452 0.017324 0 0.00320133 0.017329
0 -0.0171658 -0.00408336 0 -0.000723266 0.0176555 0 0.000723266 0.0176555 0
0.0172162 -0.00404362 0 -0.0171658 0.00455044 0 0.00781802 -0.0159527 0 -0.00778421
-0.0159796 0 -0.0138571 -0.0111534 0 0.0139177 -0.0111052 0 0.0172162 0.0045897
0 -0.0154877 0.00924127 0 -0.00451419 0.0174994 0 0.0045263 0.0175084 0
0.0155453 0.00928585 0 -0.0171658 0.00592954 0 -0.00597213 0.0171533 0 0.00598764
0.0171648 0 0.0172162 0.00596872 0 0.00639053 -0.0170872 0 -0.00637208 -0.0171018
0 -0.0171658 -0.00622243 0 0.0172162 -0.00618257 0 -0.002 0.0182418 0
0.002 0.0182418 0 -0.0154877 -0.00985753 0 0.0155453 -0.00981172 0 -0.00319452
0.0181891 0 0.00320133 0.0181941 0 -0.0154877 0.0101997 0 0.0155453 0.0102442
0 -0.0171658 0.00721136 0 0.0172162 0.00725047 0 -0.000719385 0.0187075 0
0.000719385 0.0187075 0 -0.00758282 0.0171264 0 0.00759938 0.0171387 0 -0.00597213
0.0178373 0 0.00598764 0.0178488 0 -0.00451419 0.0182994 0 0.0045263 0.0183083
0 -0.005 -0.0181922 0 0.005 -0.0181922 0 -0.018893 -0.00073496 0
-0.018893 0.0011094 0 0.0189314 -0.000704684 0 0.0189314 0.0011396 0 -0.0154877
0.0110905 0 -0.018893 -0.0027193 0 -0.018893 0.00282365 0 -0.0171658 0.00840275
0 0.0189314 -0.00268894 0 0.0155453 0.0111349 0 0.0189314 0.00285377 0
-0.00344538 -0.0188361 0 0.00344538 -0.0188361 0 -0.0171658 -0.00852385 0 0.0172162
0.00844179 0 0.0172162 -0.00848386 0 -0.00758282 0.0177113 0 0.00759938 0.0177235
0 -0.0122727 -0.0149021 0 0.0123323 -0.0148546 0 -0.00175719 -0.0192397 0
[...]
CELL_DATA 15677
FIELD attributes 1
U 3 15677 float
-0.304873 10.2652 0 0.190477 10.9192 0 -0.101144 9.44665 0 0.0315588 10.9901
0 0.118846 10.7323 0 -0.0119272 8.75834 0 0.0455304 11.0075 0
0.0144855 10.9815 0 0.0577129 10.4719 0 0.0115301 8.22933 0 0.0466987
11.0122 0 0.0433927 11.031 0 0.0260935 10.9286 0 0.0319067 10.1907
0 0.0113226 7.85613 0 0.044017 11.0135 0 0.0424095 11.0438 0
0.0428089 11.0208 0 0.0332365 10.8603 0 0.0213694 9.90293 0 0.00644056
7.61199 0 0.0413834 11.0135 0 0.0404521 11.0461 0 0.0402113 11.0448
0 0.0398935 11.0049 0 0.0328206 10.7692 0 0.01595 9.63764 0
0.00250387 7.45885 0 0.0386443 11.0131 0 0.0389967 11.0453 0 0.0393879
11.0533 0 0.0385034 11.0445 0 0.0358479 10.9826 0 0.0288548 10.6571
0 0.0121603 9.41256 0 0.000561286 7.36238 0 0.0356208 11.0123 0
0.037383 11.0435 0 0.0387206 11.0559 0 0.0384518 11.0587 0 0.03605
11.0421 0 0.031837 10.9528 0 0.0240744 10.5327 0 0.00901931 9.23763
0 1.47697e-05 7.3003 0 0.0323413 11.0113 0 0.0354753 11.041 0
0.037633 11.0557 0 0.037892 11.064 0 0.0361185 11.0633 0 0.0329124
11.0364 0 0.028414 10.9174 0 0.0194832 10.3982 0 0.00645718 9.10694
0 -0.000239119 7.25777 0 0.028868 11.0101 0 0.0333469 11.0381 0
0.0362374 11.0539 0 0.0369472 11.0652 0 0.0355593 11.0717 0 0.0329586
11.0663 0 0.0298132 11.029 0 0.0254065 10.876 0 0.0154568 10.2696
0 0.00440267 9.01214 0 -0.000469792 7.23334 0 0.0252786 11.0089 0
0.0310207 11.0348 0 0.0345826 11.0513 0 0.03573 11.0643 0 0.0346498
11.0745 0 0.0324045 11.0784 0 0.0297673 11.0688 0 0.0268224 11.0214
0 0.0221992 10.8307 0 0.0118352 10.1596 0 0.0026618 8.94629 0
-0.000673308 7.22185 0 0.0215684 11.0077 0 0.0285021 11.0312 0 0.0326609
11.048 0 0.0342478 11.0622 0 0.0334512 11.0746 0 0.0314577 11.0832
0 0.0291045 11.0853 0 0.0266169 11.0725 0 0.0235328 11.0145 0
0.018503 10.7848 0 0.00844025 10.0709 0 0.00109615 8.9043 0 -0.00108903
7.2239 0 0.0178657 11.0065 0 0.0258971 11.0273 0 0.0304583 11.0442
0 0.0324845 11.0591 0 0.0319676 11.073 0 0.0301726 11.0844 0
0.0279692 11.0924 0 0.0256921 11.0939 0 0.0231284 11.0785 0 0.0198446
11.0092 0 0.0143818 10.7413 0 0.00513092 10.0058 0 -0.000549106 8.8834
0 -0.00171001 7.23925 0 0.014672 11.0053 0 0.0232158 11.0233 0
0.0280017 11.0398 0 0.0304225 11.0553 0 0.03019 11.0703 0 0.0285651
11.0835 0 0.0264321 11.0948 0 0.0241963 11.1033 0 0.021796 11.1051
0 0.0191035 11.0876 0 0.0156525 11.0065 0 0.00990519 10.7055 0
0.00165499 9.96332 0 -0.00221923 8.88157 0 -0.00237743 7.26825 0 0.0120936
11.0043 0 0.0206749 11.0196 0 0.0253268 11.0351 0 0.0280483 11.0508
0 0.0281022 11.0666 0 0.0266303 11.0811 0 0.0245185 11.0946 0
0.0222215 11.107 0 0.0197819 11.1171 0 0.0171939 11.1198 0 0.0143571
11.1006 0 0.010753 11.0081 0 0.00501697 10.6805 0 -0.00192589 9.94269
0 -0.00410944 8.89806 0 -0.00320442 7.31105 0 0.00994217 11.0034 0
0.0184129 11.0164 0 0.0227291 11.0306 0 0.0253672 11.0456 0 0.0256842
11.062 0 0.0243513 11.0776 0 0.0222259 11.0926 0 0.0197964 11.1075
0 0.0171936 11.1221 0 0.0144855 11.1344 0 0.0116964 11.1388 0
0.00870411 11.1186 0 0.00505318 11.0158 0 -0.000347227 10.6688 0 -0.00579185
9.9428 0 -0.0061992 8.93187 0 -0.00412196 7.36783 0 0.0082704 11.0027
0 0.0163904 11.0136 0 0.0203812 11.0266 0 0.0226895 11.0406 0
0.0229255 11.0566 0 0.0217071 11.073 0 0.0195383 11.0893 0 0.0169186
11.106 0 0.0140582 11.1233 0 0.0110836 11.1407 0 0.00809243 11.1561
0 0.00510156 11.1631 0 0.00203144 11.1425 0 -0.00148287 11.0313 0
-0.00621617 10.6717 0 -0.00998246 9.96273 0 -0.00850024 8.98291 0 -0.00512038
7.4384 0 0.006888 11.0021 0 0.0144938 11.0112 0 0.0182216 11.0231
0 0.0202163 11.0361 0 0.0201299 11.0511 0 0.0186826 11.0675 0
0.016436 11.0848 0 0.0135735 11.1028 0 0.0103705 11.122 0 0.00701163
11.1426 0 0.0036456 11.1637 0 0.000372879 11.183 0 -0.00274803 11.1934
0 -0.00574209 11.1734 0 -0.00887601 11.0561 0 -0.0126273 10.6904 0
-0.0145306 10.0015 0 -0.0109973 9.05042 0 -0.0061866 7.52255 0 0.00575189
11.0017 0 0.0128057 11.0093 0 0.0162056 11.02 0 0.0178899 11.0321
0 0.0175192 11.0461 0 0.015606 11.0617 0 0.0129055 11.0791 0
0.00974453 11.0982 0 0.00611515 11.1189 0 0.00225969 11.1415 0 -0.00162349
11.1661 0 -0.00537878 11.1919 0 -0.00886423 11.216 0 -0.0119712 11.2306
0 -0.0146734 11.2124 0 -0.0171552 11.0917 0 -0.0195956 10.7253 0
-0.0194331 10.0586 0 -0.0136831 9.13392 0 -0.0073026 7.6196 0 0.00481959
11.0014 0 0.0112873 11.0078 0 0.0143523 11.0174 0 0.0157114 11.0284
0 0.0150449 11.0414 0 0.0127285 11.0562 0 0.00932806 11.0729 0
0.00542445 11.0922 0 0.00127849 11.1141 0 -0.00319113 11.1383 0 -0.00773272
11.1652 0 -0.0121384 11.1948 0 -0.0162124 11.2261 0 -0.0197641 11.2559
0 -0.0226484 11.2757 0 -0.0248041 11.2605 0 -0.0263216 11.1388 0
-0.0271068 10.7765 0 -0.0246705 10.1329 0 -0.0165344 9.23262 0 -0.00846925
7.72893 0 0.00408001 11.0011 0 0.00992143 11.0065 0 0.0126627 11.0152
0 0.0136885 11.0252 0 0.012725 11.0372 0 0.0100049 11.051 0
0.00599481 11.0669 0 0.00108099 11.0856 0 -0.00413805 11.1076 0 -0.00935312
11.1331 0 -0.0147075 11.1617 0 -0.0199361 11.1939 0 -0.0247922 11.2294
0 -0.0290327 11.267 0 -0.0324346 11.3034 0 -0.0348356 11.3293 0
-0.0361369 11.3184 0 -0.0363457 11.1983 0 -0.0351347 10.8439 0 -0.030223
10.2238 0 -0.0195357 9.3458 0 -0.00966552 7.84976 0 0.00351294 11.001
0 0.00875729 11.0056 0 0.0111254 11.0133 0 0.011827 11.0224 0
0.0105712 11.0333 0 0.00746195 11.046 0 0.00285615 11.061 0 -0.00293857
11.0789 0 -0.00954334 11.1002 0 -0.0162147 11.126 0 -0.0225604 11.156
0 -0.0288072 11.19 0 -0.034651 11.2283 0 -0.0397987 11.2706 0
-0.043976 11.3155 0 -0.0469496 11.3593 0 -0.0485439 11.3921 0 -0.0486369
11.3866 0 -0.0471674 11.2706 0 -0.0436376 10.927 0 -0.0360512 10.3302
0 -0.0226457 9.47237 0 -0.0108613 7.9809 0 0.00307345 11.0008 0
0.00780434 11.0048 0 0.00978264 11.0117 0 0.0101265 11.0199 0 0.00859261
11.0298 0 0.00511817 11.0415 0 -5.30399e-05 11.0553 0 -0.00669562 11.0721
0 -0.0145122 11.0927 0 -0.0230213 11.1176 0 -0.031269 11.1479 0
-0.038767 11.1835 0 -0.0458382 11.2239 0 -0.0521326 11.2693 0 -0.0573261
11.3192 0 -0.0611371 11.3722 0 -0.0633304 11.4241 0 -0.0637374 11.4646
0 -0.062233 11.4656 0 -0.0587064 11.3556 0 -0.0525506 11.0249 0
-0.042083 10.4507 0 -0.025815 9.61106 0 -0.0120431 8.12111 0 0.00272666
11.0007 0 0.00702103 11.0043 0 0.00866647 11.0104 0 0.0086483 11.0177
0 0.00679419 11.0266 0 0.00298712 11.0372 0 -0.00270634 11.0499 0
-0.0101469 11.0655 0 -0.0191233 11.0849 0 -0.0292442 11.1089 0 -0.0398708
11.1383 0 -0.049782 11.1743 0 -0.058375 11.2164 0 -0.0661032 11.2641
0 -0.0725861 11.3175 0 -0.0774937 11.3759 0 -0.080551 11.4376 0
-0.0815457 11.4982 0 -0.0803353 11.547 0 -0.0768128 11.5554 0 -0.0708436
11.453 0 -0.0617656 11.1369 0 -0.0482611 10.5843 0 -0.0290063 9.76054
0 -0.0131997 8.26905 0 0.00244871 11.0006 0 0.00637443 11.0038 0
0.0077444 11.0094 0 0.00742963 11.016 0 0.00524708 11.0238 0 0.00107787
11.0333 0 -0.00508419 11.0448 0 -0.0132576 11.0591 0 -0.0233232 11.0771
0 -0.0349849 11.0998 0 -0.047703 11.1281 0 -0.0606312 11.1631 0
-0.0722175 11.2056 0 -0.0817422 11.2554 0 -0.089851 11.3114 0 -0.0961603
11.3736 0 -0.100353 11.4412 0 -0.102189 11.5122 0 -0.101504 11.582
0 -0.0982085 11.6396 0 -0.0922454 11.656 0 -0.0834565 11.5625 0
-0.0711764 11.2616 0 -0.0545128 10.7294 0 -0.0321837 9.91934 0 -0.0143106
8.42334 0 0.00222288 11.0006 0 0.00583653 11.0034 0 0.00697675 11.0086
0 0.00643019 11.0145 0 0.00398864 11.0215 0 -0.000532178 11.0298 0
-0.00717268 11.0399 0 -0.0160011 11.0529 0 -0.0270673 11.0693 0 -0.0401775
11.0904 0 -0.0548972 11.1173 0 -0.0704842 11.151 0 -0.0858306 11.1925
0 -0.0989974 11.2428 0 -0.109169 11.3012 0 -0.117266 11.3664 0
-0.122927 11.4382 0 -0.125881 11.5155 0 -0.125955 11.5963 0 -0.123065
11.6756 0 -0.117197 11.742 0 -0.108351 11.7669 0 -0.0964049 11.6831
0 -0.0806955 11.3977 0 -0.0607587 10.8845 0 -0.0353086 10.0859 0
-0.0153643 8.58252 0 0.00203725 11.0005 0 0.00538613 11.0032 0 0.00633389
11.008 0 0.00560675 11.0134 0 0.00297287 11.0196 0 -0.00181008 11.0268
0 -0.00888637 11.0355 0 -0.0183577 11.0469 0 -0.0303199 11.0617 0
-0.0447648 11.081 0 -0.0613713 11.1061 0 -0.0795096 11.1381 0 -0.0981771
11.1782 0 -0.115957 11.2273 0 -0.13048 11.2864 0 -0.14088 11.3545
0 -0.148445 11.4297 0 -0.152875 11.5117 0 -0.153982 11.5992 0
-0.151694 11.6899 0 -0.146033 11.7787 0 -0.13709 11.8541 0 -0.124946
11.8876 0 -0.109526 11.8139 0 -0.0902095 11.5437 0 -0.0669246 11.0481
0 -0.0383482 10.2587 0 -0.0163631 8.74519 0 0.0018831 11.0004 0
0.00500663 11.0029 0 0.00579236 11.0074 0 0.00492563 11.0124 0 0.00215188
11.0179 0 -0.0028119 11.0242 0 -0.0101995 11.0318 0 -0.0202311 11.0413
0 -0.0330542 11.0543 0 -0.0487001 11.0716 0 -0.0670524 11.0946 0
-0.0876048 11.1245 0 -0.109471 11.1627 0 -0.131334 11.2103 0 -0.151434
11.2682 0 -0.166949 11.3372 0 -0.177017 11.4158 0 -0.183399 11.5018
0 -0.185903 11.5944 0 -0.184471 11.6923 0 -0.179172 11.793 0
-0.170165 11.8912 0 -0.157653 11.9753 0 -0.141829 12.0173 0 -0.122667
11.9537 0 -0.0996073 11.6983 0 -0.0729483 11.2185 0 -0.0412821 10.4361
0 -0.0172223 8.91024 0 0.00175395 11.0004 0 0.00468498 11.0027 0
0.00533351 11.007 0 0.00435994 11.0115 0 0.00148713 11.0165 0 -0.00359434
11.0221 0 -0.0111844 11.0285 0 -0.021606 11.0365 0 -0.0351587 11.0473
0 -0.0519466 11.0623 0 -0.0718793 11.083 0 -0.0946771 11.1105 0
-0.119585 11.1463 0 -0.145398 11.1918 0 -0.170445 11.2481 0 -0.192611
11.3158 0 -0.208589 11.3958 0 -0.217596 11.4857 0 -0.222009 11.5829
0 -0.221803 11.6865 0 -0.217091 11.7949 0 -0.208113 11.9053 0
-0.195186 12.0125 0 -0.178646 12.105 0 -0.158799 12.1551 0 -0.135685
12.1013 0 -0.10879 11.8599 0 -0.0787868 11.3941 0 -0.044042 10.6169
0 -0.0185372 9.07489 0 0.00164491 11.0004 0 0.0044108 11.0026 0
0.00494233 11.0066 0 0.00388818 11.0108 0 0.00094774 11.0154 0 -0.00420316
11.0202 0 -0.011912 11.0257 0 -0.0225782 11.0323 0 -0.0366319 11.0411
0 -0.0543723 11.0536 0 -0.0758028 11.0714 0 -0.100647 11.0962 0
-0.1284 11.1292 0 -0.157991 11.172 0 -0.187849 11.226 0 -0.215925
11.2921 0 -0.239713 11.3708 0 -0.255441 11.4626 0 -0.262514 11.5646
0 -0.26407 11.6734 0 -0.260302 11.7879 0 -0.251533 11.9066 0
-0.238205 12.0264 0 -0.220807 12.1421 0 -0.199819 12.2422 0 -0.17566
12.2998 0 -0.14844 12.2554 0 -0.117685 12.0268 0 -0.0843688 11.5735
0 -0.0472603 10.7988 0 -0.019768 9.26889 0 0.00155219 11.0003 0
0.0041759 11.0024 0 0.00460946 11.0062 0 0.003493 11.0102 0 0.000509022
11.0143 0 -0.00467495 11.0186 0 -0.0124393 11.0232 0 -0.0232388 11.0287
0 -0.0376008 11.0358 0 -0.0559918 11.0457 0 -0.0786625 11.0603 0
-0.105449 11.0817 0 -0.135815 11.1116 0 -0.168962 11.1513 0 -0.20345
11.2023 0 -0.237306 11.266 0 -0.268052 11.343 0 -0.292836 11.4337
0 -0.307429 11.5381 0 -0.311562 11.6526 0 -0.309279 11.7731 0
-0.301045 11.8985 0 -0.287429 12.027 0 -0.269097 12.1556 0 -0.246721
12.2791 0 -0.220922 12.3861 0 -0.192224 12.4505 0 -0.160821 12.4145
0 -0.1262 12.1977 0 -0.0900791 11.7547 0 -0.0500946 11.0022 0
-0.0200933 9.46827 0 0.00147276 11.0003 0 0.00397386 11.0023 0 0.00432206
11.006 0 0.00316038 11.0097 0 0.000151256 11.0135 0 -0.00503891 11.0173
0 -0.012812 11.0211 0 -0.0236611 11.0255 0 -0.038184 11.031 0
-0.0569732 11.0388 0 -0.0804919 11.0504 0 -0.108885 11.0679 0 -0.141742
11.0937 0 -0.178182 11.1297 0 -0.21706 11.1772 0 -0.256513 11.2377
0 -0.294112 11.3123 0 -0.326976 11.4015 0 -0.351934 11.5049 0
-0.364346 11.6226 0 -0.364407 11.7498 0 -0.357231 11.882 0 -0.343603
12.0179 0 -0.324366 12.1556 0 -0.300422 12.2922 0 -0.272623 12.4225
0 -0.241716 12.5356 0 -0.208336 12.6057 0 -0.172705 12.5775 0
-0.13454 12.3707 0 -0.0955089 11.9574 0 -0.0519446 11.2253 0 -0.0204983
9.66325 0 0.00140419 11.0003 0 0.00379949 11.0022 0 0.00407378 11.0057
0 0.00288102 11.0092 0 -0.000141378 11.0127 0 -0.00531821 11.0161 0
-0.013066 11.0193 0 -0.0239033 11.0227 0 -0.0384766 11.0269 0 -0.0574707
11.0328 0 -0.0815107 11.0416 0 -0.111008 11.0553 0 -0.145933 11.0764
0 -0.185535 11.1076 0 -0.228512 11.151 0 -0.273314 11.2076 0
-0.317596 11.2788 0 -0.358477 11.3656 0 -0.392698 11.4679 0 -0.416811
11.5849 0 -0.425832 11.7162 0 -0.420597 11.8562 0 -0.40744 11.9998
0 -0.387499 12.1456 0 -0.361912 12.2917 0 -0.331812 12.4354 0
-0.298219 12.5715 0 -0.261996 12.6895 0 -0.223835 12.7646 0 -0.184161
12.7425 0 -0.142904 12.5647 0 -0.10034 12.1804 0 -0.053971 11.4445
0 -0.0209323 9.85172 0 0.00134515 11.0003 0 0.00364823 11.0021 0
0.00385964 11.0055 0 0.00264394 11.0088 0 -0.000381317 11.012 0 -0.00553124
11.015 0 -0.0132299 11.0177 0 -0.0240111 11.0203 0 -0.0385537 11.0233
0 -0.0576076 11.0274 0 -0.081918 11.0338 0 -0.112103 11.0441 0
-0.148463 11.0606 0 -0.190706 11.0862 0 -0.237656 11.124 0 -0.287499
11.176 0 -0.338221 11.243 0 -0.386984 11.3263 0 -0.430461 11.4264
0 -0.465047 11.5427 0 -0.487105 11.674 0 -0.491403 11.8191 0
-0.479589 11.9716 0 -0.459358 12.126 0 -0.432228 12.2809 0 -0.399629
12.4345 0 -0.36291 12.5841 0 -0.323243 12.725 0 -0.281558 12.8468
0 -0.238679 12.9254 0 -0.195892 12.9278 0 -0.150844 12.7787 0
-0.104963 12.4004 0 -0.0559206 11.6573 0 -0.0212945 10.0323 0 0.00351597
11.002 0 0.00127368 11.0003 0 0.00367307 11.0053 0 0.00244215 11.0085
0 -0.000578628 11.0115 0 -0.00569253 11.0141 0 -0.0133259 11.0163 0
-0.0240204 11.0182 0 -0.0384743 11.0201 0 -0.0574814 11.0227 0 -0.0818736
11.0269 0 -0.112423 11.0342 0 -0.149691 11.0465 0 -0.193791 11.0666
0 -0.244091 11.0976 0 -0.298871 11.1433 0 -0.355721 11.2053 0
-0.412147 11.2842 0 -0.4648 11.3809 0 -0.509933 11.4953 0 -0.543673
11.6264 0 -0.562305 11.7721 0 -0.560455 11.9309 0 -0.54076 12.0956
0 -0.512398 12.2599 0 -0.477273 12.4229 0 -0.437088 12.5829 0
-0.393387 12.7373 0 -0.347443 12.8818 0 -0.30027 13.006 0 -0.254086
13.1058 0 -0.207373 13.1323 0 -0.158081 12.99 0 -0.109154 12.6148
0 -0.0575903 11.8621 0 -0.0215662 10.2046 0 0.00350772 11.0052 0
0.00336051 11.002 0 0.00118712 11.0002 0 0.00226877 11.0082 0 -0.000741253
11.011 0 -0.00581325 11.0133 0 -0.0133714 11.015 0 -0.0239589 11.0163
0 -0.0382841 11.0173 0 -0.0571684 11.0185 0 -0.0815034 11.0208 0
-0.112175 11.0254 0 -0.149942 11.034 0 -0.195239 11.049 0 -0.247928
11.0735 0 -0.306922 11.1112 0 -0.369845 11.1661 0 -0.433636 11.2396
0 -0.495293 11.3318 0 -0.550975 11.443 0 -0.596577 11.5727 0
-0.628061 11.719 0 -0.641767 11.8793 0 -0.632289 12.0515 0 -0.603432
12.2275 0 -0.565953 12.4009 0 -0.522121 12.5708 0 -0.473885 12.7359
0 -0.422929 12.894 0 -0.370614 13.0406 0 -0.319844 13.1848 0
-0.269445 13.3052 0 -0.217722 13.3345 0 -0.164562 13.1964 0 -0.112752
12.8218 0 -0.0589691 12.0581 0 -0.0217399 10.3681 0 0.00211449 11.0079
0 0.00332598 11.0049 0 0.00316403 11.0018 0 0.00110414 11.0002 4.297e-19
-0.000877037 11.0105 0 -0.00590201 11.0126 0 -0.0133795 11.014 0 -0.0238482
11.0147 0 -0.0380184 11.0148 0 -0.0567275 11.0149 0 -0.0809059 11.0154
0 -0.11152 11.0176 0 -0.149475 11.0228 0 -0.195456 11.0332 0
-0.249719 11.0517 0 -0.311765 11.0817 0 -0.379945 11.1274 0 -0.451132
11.1929 0 -0.521535 11.2795 0 -0.587668 11.3863 0 -0.645242 11.5132
0 -0.689892 11.6589 0 -0.717542 11.8208 0 -0.724727 11.9955 0
-0.706137 12.1803 0 -0.666901 12.3667 0 -0.619416 12.548 0 -0.566284
12.7236 0 -0.50964 12.8926 0 -0.451268 13.0529 0 -0.394969 13.219
0 -0.339605 13.3824 0 -0.283254 13.5023 0 -0.226978 13.5322 0
-0.170177 13.3961 0 -0.11578 13.0205 0 -0.0600752 12.2447 0 -0.021819
10.5224 0 -0.00100074 11.0101 0 0.00196314 11.0075 0 0.00311097 11.0047
1.88124e-18 0.00297361 11.0017 -1.36048e-18 0.00102428 11.0002 -8.7207e-19 -0.00596712 11.012 0
-0.0133597 11.013 0 -0.0237041 11.0132 0 -0.0377044 11.0127 0 -0.0562039
11.0116 0 -0.0801568 11.0107 0 -0.110584 11.0107 0 -0.148497 11.0129
0 -0.194771 11.0192 0 -0.24997 11.0321 0 -0.314074 11.0549 0
-0.386122 11.0916 0 -0.46381 11.1467 0 -0.543123 11.2246 0 -0.619518
11.3257 0 -0.689073 11.4484 0 -0.747137 11.592 0 -0.789201 11.7541
0 -0.811306 11.9316 0 -0.810333 12.1201 0 -0.781188 12.3169 0
-0.730457 12.5124 0 -0.672209 12.7002 0 -0.609306 12.8803 0 -0.54402
13.0517 0 -0.481164 13.2315 0 -0.419773 13.4163 0 -0.357415 13.5778
0 -0.295591 13.6953 0 -0.235052 13.7238 0 -0.174948 13.5882 0
-0.118281 13.2103 0 -0.0609346 12.4216 0 -0.0218161 10.6675 0 -0.00603077
11.0115 0 -0.00108357 11.0097 -3.80832e-18 0.00179606 11.0071 -1.98081e-18 0.00290183 11.0044
9.55021e-19 0.00278654 11.0016 -9.20008e-19 0.00094759 11.0002 0 -0.0133209 11.0122 0
-0.0235375 11.0119 0 -0.0373617 11.0107 0 -0.055632 11.0088 0 -0.0793143
11.0065 0 -0.109465 11.0045 0 -0.147169 11.0041 0 -0.193442 11.0067
0 -0.249087 11.0146 0 -0.314465 11.0309 0 -0.389184 11.0591 0
-0.471738 11.1039 0 -0.559014 11.1699 0 -0.646028 11.2617 0 -0.727481
11.3789 0 -0.799106 11.5187 0 -0.856002 11.6796 0 -0.89367 11.8585
0 -0.908428 12.0512 0 -0.897666 12.2529 0 -0.85661 12.4604 0
-0.793408 12.6637 0 -0.723785 12.8568 0 -0.65078 13.0396 0 -0.580403
13.2307 0 -0.511805 13.4292 0 -0.442202 13.6116 0 -0.373338 13.7693
0 -0.306398 13.8826 0 -0.241963 13.9083 0 -0.178936 13.7719 0
-0.120303 13.3907 0 -0.0615773 12.5885 0 -0.0217455 10.8034 0 -0.0132957
11.0115 0 -0.00599887 11.0108 8.01526e-18 -0.00113165 11.0091 0 0.00163574 11.0067
2.00965e-18 0.00269986 11.0042 5.80061e-22 0.00260337 11.0015 0 0.00087405 11.0002 0
-0.0233576 11.0108 0 -0.037003 11.0091 0 -0.0550366 11.0063 0 -0.0784224
11.0028 0 -0.108236 10.9991 0 -0.145615 10.9963 0 -0.191673 10.9956
0 -0.247395 10.9991 0 -0.313438 11.0093 0 -0.389875 11.0298 0
-0.475867 11.0648 0 -0.569208 11.119 0 -0.665881 11.1977 0 -0.759852
11.305 0 -0.845105 11.4397 0 -0.917157 11.5977 0 -0.971005 11.7764
0 -1.00233 11.9719 0 -1.00791 12.1793 0 -0.985772 12.3932 0
-0.931578 12.61 0 -0.855099 12.8197 0 -0.773647 13.0162 0 -0.694814
13.2192 0 -0.617873 13.4292 0 -0.539619 13.625 0 -0.462285 13.803
0 -0.387346 13.9551 0 -0.315697 14.063 0 -0.247789 14.0849 0
-0.182207 13.9467 0 -0.121895 13.5614 0 -0.0620337 12.7455 0 -0.0216199
10.9304 0 -0.023212 11.0098 0 -0.0130981 11.0106 5.32557e-22 -0.00584712 11.01
0 -0.00117779 11.0085 -2.11484e-18 0.00148438 11.0063 4.12007e-22 0.00250518 11.004 0
0.00242415 11.0014 0 0.000803648 11.0001 0 -0.0366379 11.0076 0 -0.054433
11.0041 0 -0.0775125 10.9995 0 -0.106955 10.9944 0 -0.143929 10.9894
0 -0.189621 10.9857 0 -0.245147 10.9852 0 -0.311395 10.9901 0
-0.388804 11.0035 0 -0.477086 11.0294 0 -0.574811 11.0725 0 -0.678972
11.1379 0 -0.784543 11.2309 0 -0.884387 11.3554 0 -0.971852 11.5088
0 -1.04242 11.6857 0 -1.09116 11.8825 0 -1.11413 12.0942 0
-1.1087 12.3154 0 -1.07371 12.5402 0 -1.0053 12.7648 0 -0.914916
12.9792 0 -0.826754 13.1965 0 -0.740346 13.4187 0 -0.65202 13.626
0 -0.564581 13.8172 0 -0.480007 13.989 0 -0.399473 14.1344 0
-0.323587 14.236 0 -0.252621 14.2533 0 -0.18483 14.1124 0 -0.123109
13.7224 0 -0.0623298 12.8928 0 -0.0214504 11.0488 0 -0.0363347 11.0063
0 -0.0227879 11.0087 -4.43269e-18 -0.0126524 11.0096 0 -0.00570031 11.0092 0
-0.00121064 11.0079 6.43326e-18 0.00134191 11.0059 0 0.00231765 11.0037 0 0.00224905
11.0013 1.91707e-18 0.000736384 11.0001 0 -0.0538311 11.0021 0 -0.0766031 10.9966
0 -0.105661 10.9901 0 -0.142185 10.9833 0 -0.187406 10.977 0
-0.242542 10.9729 0 -0.308651 10.9729 0 -0.38646 10.9799 0 -0.476126
10.9975 0 -0.576869 11.0302 0 -0.686562 11.083 0 -0.801286 11.1613
0 -0.914917 11.2703 0 -1.0192 11.4135 0 -1.10697 11.5868 0
-1.17391 11.7831 0 -1.21536 11.9978 0 -1.22792 12.2251 0 -1.20975
12.4589 0 -1.16058 12.6931 0 -1.07706 12.9237 0 -0.978828 13.1598
0 -0.881849 13.3971 0 -0.781975 13.6169 0 -0.682742 13.8194 0
-0.586683 14.004 0 -0.495421 14.1686 0 -0.409829 14.3065 0 -0.330182
14.4011 0 -0.256556 14.4131 0 -0.18688 14.2689 0 -0.123993 13.8737
0 -0.0624911 13.0305 0 -0.0212474 11.1588 0 -0.0533277 11.0004 0
-0.0356085 11.0048 0 -0.0219307 11.0074 -4.84427e-18 -0.0122236 11.0086 -4.675e-18 -0.00553413
11.0085 -9.01765e-18 -0.00123006 11.0074 0 0.0012084 11.0056 -4.188e-18 0.00213748 11.0035
-4.03364e-18 0.00207802 11.0012 1.94138e-18 0.000672116 11.0001 0 -0.0757046 10.9941 0
-0.104377 10.9864 0 -0.140431 10.9779 0 -0.185121 10.9693 0 -0.239731
10.9619 0 -0.305452 10.9576 0 -0.38323 10.9589 0 -0.473579 10.9689
0 -0.576252 10.992 0 -0.68987 11.0329 0 -0.811497 11.097 0
-0.9362 11.19 0 -1.05669 11.3169 0 -1.16363 11.4802 0 -1.24953