#           x             T
    -0.118947       349.551
    -0.118121       349.548
    -0.117174       349.546
    -0.116087       349.544
     -0.11484       349.542
    -0.113408       349.541
    -0.111764       349.541
    -0.109877        349.54
    -0.107712        349.54
    -0.105227        349.54
    -0.102374        349.54
   -0.0990995       349.541
   -0.0953416       349.543
   -0.0914285       349.549
   -0.0876191       349.562
   -0.0838095       349.588
        -0.08       349.642
   -0.0761904       349.755
   -0.0723809       349.986
   -0.0685715       350.459
   -0.0649271       351.367
    -0.061624       352.945
    -0.058655       355.449
   -0.0559862       359.049
   -0.0535874       363.702
   -0.0514313       369.136
   -0.0494932       374.906
   -0.0477512       380.475
   -0.0461853       385.352
   -0.0447779       389.225
   -0.0435128       392.042
   -0.0423757       393.938
   -0.0413536       395.101
   -0.0404349       395.711
     -0.03925       395.788
     -0.03775       394.981
     -0.03625       393.376
     -0.03475       391.447
     -0.03325       389.593
     -0.03175       387.991
     -0.03025       386.681
     -0.02875        385.64
     -0.02725       384.833
     -0.02575       384.223
   -0.0243994       383.789
   -0.0231362       383.477
    -0.021743       383.222
   -0.0202065       383.022
   -0.0189203       382.897
   -0.0180315       382.826
   -0.0166427       382.736
   -0.0145812       382.637
    -0.012414       382.566
   -0.0110231       382.528
   -0.0100402       382.502
  -0.00847254       382.464
  -0.00677747        382.43
  -0.00524316       382.403
  -0.00385435       382.383
  -0.00288618       382.373
  -0.00228892       382.368
  -0.00133333       382.362
            0       382.359
   0.00133333       382.363
     0.002289       382.371
   0.00288966       382.377
   0.00386381       382.391
   0.00525697       382.415
   0.00679351       382.448
    0.0084882       382.491
    0.0100473        382.54
    0.0110276       382.572
    0.0124188       382.622
    0.0145859       382.714
    0.0166548       382.837
    0.0180384       382.942
    0.0189282       383.024
    0.0202225       383.165
    0.0217568       383.382
    0.0231456       383.648
    0.0244027       383.968
      0.02575       384.406
      0.02725       385.018
      0.02875       385.824
      0.03025        386.86
      0.03175       388.168
      0.03325       389.768
      0.03475       391.621
      0.03625       393.533
      0.03775        395.09
      0.03925       395.822
    0.0404349        395.68
    0.0413536       395.019
    0.0423757       393.811
    0.0435128       391.872
    0.0447779       389.015
    0.0461853       385.115
    0.0477511       380.231
    0.0494932       374.664
    0.0514312       368.926
    0.0535874       363.536
    0.0559862        358.93
    0.0586549       355.372
     0.061624         352.9
    0.0649271       351.343
    0.0685714       350.448
    0.0723809       349.981
    0.0761904       349.752
         0.08       349.641
    0.0838095       349.587
     0.087619       349.562
    0.0914285       349.549
    0.0953419       349.543
    0.0991002       349.541
     0.102374        349.54
     0.105227        349.54
     0.107713        349.54
     0.109878        349.54
     0.111765       349.541
     0.113408       349.541
      0.11484       349.542
     0.116088       349.544
     0.117175       349.546
     0.118122       349.548
     0.118947       349.551
     0.119665       349.553
