#           x             T
    -0.118946       349.916
    -0.118121       349.906
    -0.117174         349.9
    -0.116087       349.895
    -0.114839       349.892
    -0.113407        349.89
    -0.111763       349.888
    -0.109877       349.888
    -0.107712       349.888
    -0.105226       349.889
    -0.102373       349.891
   -0.0990994       349.895
   -0.0953416       349.902
   -0.0914285       349.915
    -0.087619       349.937
   -0.0838095       349.976
        -0.08       350.045
   -0.0761904       350.165
   -0.0723809       350.377
   -0.0685714       350.745
   -0.0649271       351.346
    -0.061624       352.242
   -0.0586549       353.494
   -0.0559862       355.149
   -0.0535874       357.225
   -0.0514312       359.695
   -0.0494932       362.486
   -0.0477512       365.479
   -0.0461853       368.527
   -0.0447779       371.485
   -0.0435128        374.23
   -0.0423757       376.677
   -0.0413536       378.776
   -0.0404349       380.633
     -0.03925       382.641
     -0.03775        384.81
     -0.03625         386.8
     -0.03475       388.501
     -0.03325       389.911
     -0.03175       391.045
     -0.03025       391.927
     -0.02875       392.586
     -0.02725       393.054
     -0.02575       393.363
   -0.0243993       393.541
   -0.0231362       393.626
    -0.021743       393.647
   -0.0202065       393.592
   -0.0185118       393.476
   -0.0171075       393.357
   -0.0161272       393.264
   -0.0145812        393.11
    -0.012414       392.879
   -0.0103452       392.647
  -0.00847254       392.439
  -0.00711441       392.293
  -0.00630907       392.208
  -0.00524316         392.1
  -0.00385435       391.969
  -0.00259726       391.864
  -0.00133333       391.776
            0        391.71
   0.00133333       391.676
   0.00260066       391.676
   0.00386381        391.72
   0.00525697       391.827
   0.00631696       391.952
   0.00712283       392.075
    0.0084882       392.338
    0.0103573       392.824
    0.0124188       393.507
    0.0145859       394.288
    0.0161321       394.849
     0.017115         395.2
    0.0185274       395.668
    0.0202225        396.14
    0.0217568        396.44
    0.0231456       396.586
    0.0244027        396.68
      0.02575       396.754
      0.02725        396.81
      0.02875       396.843
      0.03025       396.856
      0.03175       396.844
      0.03325       396.794
      0.03475       396.676
      0.03625       396.432
      0.03775       395.975
      0.03925       395.217
    0.0404349       394.249
    0.0413536       393.204
    0.0423757       391.859
    0.0435128        390.03
    0.0447779       387.577
    0.0461853        384.39
    0.0477511       380.449
    0.0494932       375.869
    0.0514312       370.918
    0.0535874        365.98
    0.0559862       361.446
    0.0586549       357.625
     0.061624       354.695
    0.0649271       352.654
    0.0685714       351.364
    0.0723809       350.635
    0.0761904       350.251
         0.08       350.051
    0.0838095       349.947
     0.087619       349.894
    0.0914285       349.868
    0.0953419       349.856
    0.0991002       349.851
     0.102374       349.849
     0.105227       349.849
     0.107713        349.85
     0.109878       349.851
     0.111765       349.852
     0.113408       349.854
      0.11484       349.857
     0.116088        349.86
     0.117175       349.866
     0.118122       349.873
     0.118947       349.884
     0.119665       349.895
