#           x             T
    -0.118947       349.909
    -0.118121       349.904
    -0.117174       349.898
    -0.116087       349.892
     -0.11484       349.887
    -0.113408       349.885
    -0.111764       349.883
    -0.109877       349.882
    -0.107712       349.881
    -0.105227        349.88
    -0.102374        349.88
   -0.0990995       349.881
   -0.0953416       349.883
   -0.0914285       349.887
   -0.0876191       349.895
   -0.0838095       349.911
        -0.08       349.942
   -0.0761904       350.001
   -0.0723809       350.117
   -0.0685715       350.337
   -0.0649271        350.73
    -0.061624       351.372
    -0.058655       352.346
   -0.0559862       353.722
   -0.0535874       355.519
   -0.0514313       357.684
   -0.0494932       360.113
   -0.0477512       362.668
   -0.0461853       365.222
   -0.0447779       367.679
   -0.0435128        369.98
   -0.0423757       372.092
   -0.0413536           374
   -0.0404349       375.829
     -0.03925       377.991
     -0.03775       380.494
     -0.03625       382.934
     -0.03475       385.162
     -0.03325       387.153
     -0.03175         388.9
     -0.03025       390.409
     -0.02875       391.691
     -0.02725       392.767
     -0.02575       393.656
   -0.0243994       394.353
   -0.0231362       394.883
    -0.021743       395.345
   -0.0202065       395.758
   -0.0189203        396.02
   -0.0180315       396.164
   -0.0166427       396.336
   -0.0145812       396.495
    -0.012414       396.552
   -0.0110231       396.545
   -0.0100402       396.524
  -0.00847254       396.469
  -0.00677747       396.382
  -0.00524316       396.288
  -0.00385435       396.199
  -0.00288618       396.134
  -0.00228892       396.091
  -0.00133333       396.031
            0       395.958
   0.00133333       395.893
     0.002289       395.852
   0.00288966       395.831
   0.00386381       395.808
   0.00525697        395.79
   0.00679351       395.791
    0.0084882       395.826
    0.0100473       395.885
    0.0110276       395.928
    0.0124188       396.002
    0.0145859        396.13
    0.0166548       396.293
    0.0180384       396.398
    0.0189282       396.463
    0.0202225        396.55
    0.0217568        396.64
    0.0231456       396.708
    0.0244027        396.76
      0.02575       396.806
      0.02725       396.847
      0.02875       396.888
      0.03025       396.931
      0.03175       396.985
      0.03325       397.055
      0.03475       397.146
      0.03625       397.261
      0.03775       397.393
      0.03925       397.515
    0.0404349        397.58
    0.0413536        397.57
    0.0423757        397.43
    0.0435128       396.991
    0.0447779       395.904
    0.0461853        393.64
    0.0477511       389.716
    0.0494932       384.013
    0.0514312       377.034
    0.0535874       369.771
    0.0559862       363.225
    0.0586549       358.052
     0.061624       354.461
    0.0649271        352.25
    0.0685714       351.018
    0.0723809       350.398
    0.0761904       350.106
         0.08       349.969
    0.0838095       349.905
     0.087619       349.875
    0.0914285       349.862
    0.0953419       349.857
    0.0991002       349.855
     0.102374       349.855
     0.105227       349.855
     0.107713       349.856
     0.109878       349.858
     0.111765       349.859
     0.113408       349.861
      0.11484       349.865
     0.116088       349.869
     0.117175       349.875
     0.118122       349.882
     0.118947       349.887
     0.119665       349.891
