#           x             T
    -0.118946       349.938
    -0.118121       349.927
    -0.117174        349.92
    -0.116087       349.915
    -0.114839       349.911
    -0.113407       349.909
    -0.111763       349.908
    -0.109877       349.908
    -0.107712       349.908
    -0.105226        349.91
    -0.102373       349.912
   -0.0990994       349.917
   -0.0953416       349.926
   -0.0914285       349.942
    -0.087619        349.97
   -0.0838095       350.019
        -0.08       350.107
   -0.0761904       350.266
   -0.0723809       350.555
   -0.0685714       351.076
   -0.0649271       351.966
    -0.061624       353.361
   -0.0586549       355.397
   -0.0559862        358.15
   -0.0535874       361.571
   -0.0514312       365.467
   -0.0494932       369.555
   -0.0477512       373.551
   -0.0461853       377.233
   -0.0447779       380.471
   -0.0435128       383.211
   -0.0423757       385.457
   -0.0413536       387.242
   -0.0404349       388.711
     -0.03925        390.18
     -0.03775       391.624
     -0.03625       392.816
     -0.03475       393.716
     -0.03325       394.362
     -0.03175       394.792
     -0.03025       395.049
     -0.02875       395.167
     -0.02725       395.178
     -0.02575       395.115
   -0.0243993       395.009
   -0.0231362       394.881
    -0.021743       394.725
   -0.0202065       394.533
   -0.0185118       394.317
   -0.0171075       394.142
   -0.0161272       394.023
   -0.0145812       393.842
    -0.012414       393.597
   -0.0103452       393.372
  -0.00847254       393.174
  -0.00711441       393.033
  -0.00630907        392.95
  -0.00524316       392.838
  -0.00385435       392.693
  -0.00259726       392.562
  -0.00133333       392.436
            0       392.309
   0.00133333       392.193
   0.00260066       392.101
   0.00386381        392.03
   0.00525697       391.985
   0.00631696       391.978
   0.00712283       391.992
    0.0084882       392.056
    0.0103573       392.233
    0.0124188       392.564
    0.0145859       393.057
    0.0161321       393.491
     0.017115       393.809
    0.0185274       394.318
    0.0202225       394.977
    0.0217568       395.526
    0.0231456       395.836
    0.0244027        396.07
      0.02575       396.235
      0.02725       396.304
      0.02875       396.221
      0.03025        395.94
      0.03175       395.438
      0.03325       394.685
      0.03475       393.641
      0.03625       392.266
      0.03775        390.53
      0.03925       388.525
    0.0404349       386.635
    0.0413536       384.963
    0.0423757       383.144
    0.0435128       380.993
    0.0447779       378.447
    0.0461853       375.486
    0.0477511       372.149
    0.0494932       368.547
    0.0514312       364.862
    0.0535874       361.309
    0.0559862       358.102
    0.0586549       355.427
     0.061624       353.379
    0.0649271        351.94
    0.0685714       351.014
    0.0723809       350.476
    0.0761904       350.186
         0.08       350.032
    0.0838095       349.951
     0.087619       349.909
    0.0914285       349.888
    0.0953419       349.878
    0.0991002       349.874
     0.102374       349.873
     0.105227       349.873
     0.107713       349.874
     0.109878       349.875
     0.111765       349.876
     0.113408       349.878
      0.11484       349.881
     0.116088       349.885
     0.117175       349.891
     0.118122       349.899
     0.118947        349.91
     0.119665       349.921
