#           x             T
    -0.118947       289.218
    -0.118121       289.376
    -0.117174       289.523
    -0.116087        289.68
     -0.11484       289.861
    -0.113408       290.082
    -0.111764       290.366
    -0.109877       290.741
    -0.107712        291.25
    -0.105227       291.952
    -0.102374        292.93
   -0.0990995        294.29
   -0.0953416       296.134
   -0.0914285       298.357
   -0.0876191       300.704
   -0.0838095       302.909
        -0.08       304.584
   -0.0761904       305.388
   -0.0723809       305.274
   -0.0685715       304.441
   -0.0649271        303.42
    -0.061624       302.732
    -0.058655       302.504
   -0.0559862        302.63
   -0.0535874        302.97
   -0.0514313       303.402
   -0.0494932       303.847
   -0.0477512       304.254
   -0.0461853       304.594
   -0.0447779       304.853
   -0.0435128       305.027
   -0.0423757       305.118
   -0.0413536        305.13
   -0.0404349       305.062
     -0.03925       304.884
     -0.03775       304.568
     -0.03625        304.14
     -0.03475       303.614
     -0.03325       303.002
     -0.03175       302.314
     -0.03025       301.566
     -0.02875       300.775
     -0.02725       299.958
     -0.02575       299.147
   -0.0243994       298.398
   -0.0231362       297.704
    -0.021743       296.968
   -0.0202065       296.172
   -0.0189203       295.547
   -0.0180315       295.139
   -0.0166427       294.545
   -0.0145812       293.737
    -0.012414       293.005
   -0.0110231       292.595
   -0.0100402       292.324
  -0.00847254       291.929
  -0.00677747        291.57
  -0.00524316        291.32
  -0.00385435       291.146
  -0.00288618       291.053
  -0.00228892       291.005
  -0.00133333       290.956
            0       290.931
   0.00133333       290.954
     0.002289       291.002
   0.00288966       291.049
   0.00386381       291.143
   0.00525697       291.317
   0.00679351       291.566
    0.0084882       291.924
    0.0100473       292.315
    0.0110276       292.583
    0.0124188       292.991
    0.0145859       293.718
    0.0166548       294.523
    0.0180384       295.112
    0.0189282       295.517
    0.0202225       296.143
    0.0217568       296.934
    0.0231456       297.664
    0.0244027       298.351
      0.02575       299.094
      0.02725       299.902
      0.02875       300.715
      0.03025       301.504
      0.03175       302.251
      0.03325       302.938
      0.03475       303.552
      0.03625       304.079
      0.03775       304.509
      0.03925       304.826
    0.0404349       305.003
    0.0413536       305.069
    0.0423757       305.054
    0.0435128       304.959
    0.0447779        304.78
    0.0461853       304.517
    0.0477511       304.173
    0.0494932       303.764
    0.0514312       303.318
    0.0535874       302.887
    0.0559862       302.553
    0.0586549       302.435
     0.061624       302.677
    0.0649271        303.38
    0.0685714       304.414
    0.0723809       305.254
    0.0761904       305.369
         0.08       304.565
    0.0838095       302.895
     0.087619       300.695
    0.0914285       298.355
    0.0953419       296.138
    0.0991002       294.296
     0.102374       292.937
     0.105227       291.959
     0.107713       291.256
     0.109878       290.746
     0.111765       290.369
     0.113408       290.084
      0.11484       289.861
     0.116088       289.679
     0.117175       289.521
     0.118122       289.372
     0.118947       289.213
     0.119665       289.068
