#           x             T
    -0.118946       289.381
    -0.118121       289.513
    -0.117174       289.642
    -0.116087       289.779
    -0.114839       289.938
    -0.113407        290.13
    -0.111763       290.372
    -0.109877       290.682
    -0.107712       291.091
    -0.105226       291.637
    -0.102373        292.37
   -0.0990994       293.354
   -0.0953416       294.639
   -0.0914285       296.141
    -0.087619       297.724
   -0.0838095        299.31
        -0.08       300.786
   -0.0761904       302.027
   -0.0723809        302.94
   -0.0685714       303.492
   -0.0649271       303.725
    -0.061624       303.749
   -0.0586549       303.695
   -0.0559862       303.624
   -0.0535874       303.547
   -0.0514312       303.447
   -0.0494932       303.303
   -0.0477512       303.091
   -0.0461853       302.802
   -0.0447779       302.447
   -0.0435128       302.046
   -0.0423757       301.627
   -0.0413536       301.218
   -0.0404349       300.817
     -0.03925       300.331
     -0.03775       299.719
     -0.03625        299.05
     -0.03475       298.361
     -0.03325       297.665
     -0.03175       296.976
     -0.03025       296.305
     -0.02875       295.662
     -0.02725       295.051
     -0.02575       294.491
   -0.0243993       294.008
   -0.0231362       293.587
    -0.021743        293.18
   -0.0202065       292.782
   -0.0185118       292.389
   -0.0171075       292.091
   -0.0161272       291.897
   -0.0145812       291.617
    -0.012414       291.256
   -0.0103452       290.956
  -0.00847254       290.723
  -0.00711441       290.574
  -0.00630907       290.494
  -0.00524316       290.399
  -0.00385435       290.296
  -0.00259726       290.228
  -0.00133333       290.185
            0        290.17
   0.00133333       290.185
   0.00260066       290.229
   0.00386381       290.299
   0.00525697       290.402
   0.00631696       290.497
   0.00712283       290.577
    0.0084882       290.726
    0.0103573       290.958
    0.0124188       291.254
    0.0145859       291.611
    0.0161321       291.887
     0.017115       292.078
    0.0185274       292.374
    0.0202225       292.761
    0.0217568       293.152
    0.0231456       293.552
    0.0244027       293.965
      0.02575        294.44
      0.02725       294.992
      0.02875       295.594
      0.03025       296.229
      0.03175        296.89
      0.03325       297.571
      0.03475       298.258
      0.03625       298.941
      0.03775       299.605
      0.03925       300.215
    0.0404349       300.705
    0.0413536        301.11
    0.0423757       301.524
    0.0435128        301.95
    0.0447779       302.358
    0.0461853       302.721
    0.0477511       303.015
    0.0494932       303.233
    0.0514312       303.383
    0.0535874       303.487
    0.0559862       303.569
    0.0586549       303.645
     0.061624       303.703
    0.0649271       303.682
    0.0685714       303.454
    0.0723809       302.909
    0.0761904       302.005
         0.08       300.774
    0.0838095       299.309
     0.087619       297.733
    0.0914285       296.157
    0.0953419        294.66
    0.0991002       293.377
     0.102374       292.392
     0.105227       291.657
     0.107713       291.109
     0.109878       290.698
     0.111765       290.384
     0.113408        290.14
      0.11484       289.946
     0.116088       289.785
     0.117175       289.646
     0.118122       289.516
     0.118947       289.381
     0.119665       289.265
