%!PS-Adobe-3.0 EPSF-3.0
%%LanguageLevel: 3
%%Title: forces_moments.eps
%%Creator: Matplotlib v3.10.0, https://matplotlib.org/
%%CreationDate: Mon Feb 17 10:46:16 2025
%%Orientation: portrait
%%BoundingBox: 0 0 461 346
%%HiResBoundingBox: 0.000000 0.000000 460.800000 345.600000
%%EndComments
%%BeginProlog
/mpldict 9 dict def
mpldict begin
/_d { bind def } bind def
/m { moveto } _d
/l { lineto } _d
/r { rlineto } _d
/c { curveto } _d
/cl { closepath } _d
/ce { closepath eofill } _d
/sc { setcachedevice } _d
%!PS-Adobe-3.0 Resource-Font
%%Creator: Converted from TrueType to Type 3 by Matplotlib.
10 dict begin
/FontName /DejaVuSans def
/PaintType 0 def
/FontMatrix [0.00048828125 0 0 0.00048828125 0 0] def
/FontBBox [-2090 -948 3673 2524] def
/FontType 3 def
/Encoding [/minus /space /asterisk /period /slash /zero /one /two /three /four /five /F /M /N /S /T /bracketleft /bracketright /underscore /c /e /i /l /m /o /p /r /s /t /x /y /z] def
/CharStrings 33 dict dup begin
/.notdef 0 def
/minus{1716 0 217 557 1499 727 sc
217 727 m
1499 727 l
1499 557 l
217 557 l
217 727 l

ce} _d
/space{651 0 0 0 0 0 sc
ce} _d
/asterisk{1024 0 61 586 963 1520 sc
963 1247 m
604 1053 l
963 858 l
905 760 l
569 963 l
569 586 l
455 586 l
455 963 l
119 760 l
61 858 l
420 1053 l
61 1247 l
119 1346 l
455 1143 l
455 1520 l
569 1520 l
569 1143 l
905 1346 l
963 1247 l

ce} _d
/period{651 0 219 0 430 254 sc
219 254 m
430 254 l
430 0 l
219 0 l
219 254 l

ce} _d
/slash{690 0 0 -190 690 1493 sc
520 1493 m
690 1493 l
170 -190 l
0 -190 l
520 1493 l

ce} _d
/zero{1303 0 135 -29 1167 1520 sc
651 1360 m
547 1360 469 1309 416 1206 c
364 1104 338 950 338 745 c
338 540 364 387 416 284 c
469 182 547 131 651 131 c
756 131 834 182 886 284 c
939 387 965 540 965 745 c
965 950 939 1104 886 1206 c
834 1309 756 1360 651 1360 c

651 1520 m
818 1520 946 1454 1034 1321 c
1123 1189 1167 997 1167 745 c
1167 494 1123 302 1034 169 c
946 37 818 -29 651 -29 c
484 -29 356 37 267 169 c
179 302 135 494 135 745 c
135 997 179 1189 267 1321 c
356 1454 484 1520 651 1520 c

ce} _d
/one{1303 0 225 0 1114 1493 sc
254 170 m
584 170 l
584 1309 l
225 1237 l
225 1421 l
582 1493 l
784 1493 l
784 170 l
1114 170 l
1114 0 l
254 0 l
254 170 l

ce} _d
/two{1303 0 150 0 1098 1520 sc
393 170 m
1098 170 l
1098 0 l
150 0 l
150 170 l
227 249 331 356 463 489 c
596 623 679 709 713 748 c
778 821 823 882 848 932 c
874 983 887 1032 887 1081 c
887 1160 859 1225 803 1275 c
748 1325 675 1350 586 1350 c
523 1350 456 1339 385 1317 c
315 1295 240 1262 160 1217 c
160 1421 l
241 1454 317 1478 388 1495 c
459 1512 523 1520 582 1520 c
737 1520 860 1481 952 1404 c
1044 1327 1090 1223 1090 1094 c
1090 1033 1078 974 1055 919 c
1032 864 991 800 930 725 c
913 706 860 650 771 557 c
682 465 556 336 393 170 c

ce} _d
/three{1303 0 156 -29 1139 1520 sc
831 805 m
928 784 1003 741 1057 676 c
1112 611 1139 530 1139 434 c
1139 287 1088 173 987 92 c
886 11 742 -29 555 -29 c
492 -29 428 -23 361 -10 c
295 2 227 20 156 45 c
156 240 l
212 207 273 183 340 166 c
407 149 476 141 549 141 c
676 141 772 166 838 216 c
905 266 938 339 938 434 c
938 522 907 591 845 640 c
784 690 698 715 588 715 c
414 715 l
414 881 l
596 881 l
695 881 771 901 824 940 c
877 980 903 1037 903 1112 c
903 1189 876 1247 821 1288 c
767 1329 689 1350 588 1350 c
533 1350 473 1344 410 1332 c
347 1320 277 1301 201 1276 c
201 1456 l
278 1477 349 1493 416 1504 c
483 1515 547 1520 606 1520 c
759 1520 881 1485 970 1415 c
1059 1346 1104 1252 1104 1133 c
1104 1050 1080 980 1033 923 c
986 866 918 827 831 805 c

ce} _d
/four{1303 0 100 0 1188 1493 sc
774 1317 m
264 520 l
774 520 l
774 1317 l

721 1493 m
975 1493 l
975 520 l
1188 520 l
1188 352 l
975 352 l
975 0 l
774 0 l
774 352 l
100 352 l
100 547 l
721 1493 l

ce} _d
/five{1303 0 158 -29 1124 1493 sc
221 1493 m
1014 1493 l
1014 1323 l
406 1323 l
406 957 l
435 967 465 974 494 979 c
523 984 553 987 582 987 c
749 987 881 941 978 850 c
1075 759 1124 635 1124 479 c
1124 318 1074 193 974 104 c
874 15 733 -29 551 -29 c
488 -29 424 -24 359 -13 c
294 -2 227 14 158 35 c
158 238 l
218 205 280 181 344 165 c
408 149 476 141 547 141 c
662 141 754 171 821 232 c
888 293 922 375 922 479 c
922 583 888 665 821 726 c
754 787 662 817 547 817 c
493 817 439 811 385 799 c
332 787 277 768 221 743 c
221 1493 l

ce} _d
/F{1178 0 201 0 1059 1493 sc
201 1493 m
1059 1493 l
1059 1323 l
403 1323 l
403 883 l
995 883 l
995 713 l
403 713 l
403 0 l
201 0 l
201 1493 l

ce} _d
/M{1767 0 201 0 1567 1493 sc
201 1493 m
502 1493 l
883 477 l
1266 1493 l
1567 1493 l
1567 0 l
1370 0 l
1370 1311 l
985 287 l
782 287 l
397 1311 l
397 0 l
201 0 l
201 1493 l

ce} _d
/N{1532 0 201 0 1331 1493 sc
201 1493 m
473 1493 l
1135 244 l
1135 1493 l
1331 1493 l
1331 0 l
1059 0 l
397 1249 l
397 0 l
201 0 l
201 1493 l

ce} _d
/S{1300 0 135 -29 1186 1520 sc
1096 1444 m
1096 1247 l
1019 1284 947 1311 879 1329 c
811 1347 745 1356 682 1356 c
572 1356 487 1335 427 1292 c
368 1249 338 1189 338 1110 c
338 1044 358 994 397 960 c
437 927 512 900 623 879 c
745 854 l
896 825 1007 775 1078 702 c
1150 630 1186 533 1186 412 c
1186 267 1137 158 1040 83 c
943 8 801 -29 614 -29 c
543 -29 468 -21 388 -5 c
309 11 226 35 141 66 c
141 274 l
223 228 303 193 382 170 c
461 147 538 135 614 135 c
729 135 818 158 881 203 c
944 248 975 313 975 397 c
975 470 952 528 907 569 c
862 610 789 641 686 662 c
563 686 l
412 716 303 763 236 827 c
169 891 135 980 135 1094 c
135 1226 181 1330 274 1406 c
367 1482 496 1520 659 1520 c
729 1520 800 1514 873 1501 c
946 1488 1020 1469 1096 1444 c

ce} _d
/T{1251 0 -6 0 1257 1493 sc
-6 1493 m
1257 1493 l
1257 1323 l
727 1323 l
727 0 l
524 0 l
524 1323 l
-6 1323 l
-6 1493 l

ce} _d
/bracketleft{799 0 176 -270 600 1556 sc
176 1556 m
600 1556 l
600 1413 l
360 1413 l
360 -127 l
600 -127 l
600 -270 l
176 -270 l
176 1556 l

ce} _d
/bracketright{799 0 199 -270 623 1556 sc
623 1556 m
623 -270 l
199 -270 l
199 -127 l
438 -127 l
438 1413 l
199 1413 l
199 1556 l
623 1556 l

ce} _d
/underscore{1024 0 -20 -483 1044 -340 sc
1044 -340 m
1044 -483 l
-20 -483 l
-20 -340 l
1044 -340 l

ce} _d
/c{1126 0 113 -29 999 1147 sc
999 1077 m
999 905 l
947 934 895 955 842 969 c
790 984 737 991 684 991 c
565 991 472 953 406 877 c
340 802 307 696 307 559 c
307 422 340 316 406 240 c
472 165 565 127 684 127 c
737 127 790 134 842 148 c
895 163 947 184 999 213 c
999 43 l
948 19 894 1 839 -11 c
784 -23 726 -29 664 -29 c
495 -29 361 24 262 130 c
163 236 113 379 113 559 c
113 742 163 885 263 990 c
364 1095 501 1147 676 1147 c
733 1147 788 1141 842 1129 c
896 1118 948 1100 999 1077 c

ce} _d
/e{1260 0 113 -29 1151 1147 sc
1151 606 m
1151 516 l
305 516 l
313 389 351 293 419 226 c
488 160 583 127 705 127 c
776 127 844 136 910 153 c
977 170 1043 196 1108 231 c
1108 57 l
1042 29 974 8 905 -7 c
836 -22 765 -29 694 -29 c
515 -29 374 23 269 127 c
165 231 113 372 113 549 c
113 732 162 878 261 985 c
360 1093 494 1147 662 1147 c
813 1147 932 1098 1019 1001 c
1107 904 1151 773 1151 606 c

967 660 m
966 761 937 841 882 901 c
827 961 755 991 664 991 c
561 991 479 962 417 904 c
356 846 320 764 311 659 c
967 660 l

ce} _d
/i{569 0 193 0 377 1556 sc
193 1120 m
377 1120 l
377 0 l
193 0 l
193 1120 l

193 1556 m
377 1556 l
377 1323 l
193 1323 l
193 1556 l

ce} _d
/l{569 0 193 0 377 1556 sc
193 1556 m
377 1556 l
377 0 l
193 0 l
193 1556 l

ce} _d
/m{1995 0 186 0 1821 1147 sc
1065 905 m
1111 988 1166 1049 1230 1088 c
1294 1127 1369 1147 1456 1147 c
1573 1147 1663 1106 1726 1024 c
1789 943 1821 827 1821 676 c
1821 0 l
1636 0 l
1636 670 l
1636 777 1617 857 1579 909 c
1541 961 1483 987 1405 987 c
1310 987 1234 955 1179 892 c
1124 829 1096 742 1096 633 c
1096 0 l
911 0 l
911 670 l
911 778 892 858 854 909 c
816 961 757 987 678 987 c
584 987 509 955 454 891 c
399 828 371 742 371 633 c
371 0 l
186 0 l
186 1120 l
371 1120 l
371 946 l
413 1015 463 1065 522 1098 c
581 1131 650 1147 731 1147 c
812 1147 881 1126 938 1085 c
995 1044 1038 984 1065 905 c

ce} _d
/o{1253 0 113 -29 1141 1147 sc
627 991 m
528 991 450 952 393 875 c
336 798 307 693 307 559 c
307 425 335 319 392 242 c
449 165 528 127 627 127 c
725 127 803 166 860 243 c
917 320 946 426 946 559 c
946 692 917 797 860 874 c
803 952 725 991 627 991 c

627 1147 m
787 1147 913 1095 1004 991 c
1095 887 1141 743 1141 559 c
1141 376 1095 232 1004 127 c
913 23 787 -29 627 -29 c
466 -29 340 23 249 127 c
158 232 113 376 113 559 c
113 743 158 887 249 991 c
340 1095 466 1147 627 1147 c

ce} _d
/p{1300 0 186 -426 1188 1147 sc
371 168 m
371 -426 l
186 -426 l
186 1120 l
371 1120 l
371 950 l
410 1017 458 1066 517 1098 c
576 1131 647 1147 729 1147 c
865 1147 975 1093 1060 985 c
1145 877 1188 735 1188 559 c
1188 383 1145 241 1060 133 c
975 25 865 -29 729 -29 c
647 -29 576 -13 517 19 c
458 52 410 101 371 168 c

997 559 m
997 694 969 800 913 877 c
858 954 781 993 684 993 c
587 993 510 954 454 877 c
399 800 371 694 371 559 c
371 424 399 317 454 240 c
510 163 587 125 684 125 c
781 125 858 163 913 240 c
969 317 997 424 997 559 c

ce} _d
/r{842 0 186 0 842 1147 sc
842 948 m
821 960 799 969 774 974 c
750 980 723 983 694 983 c
590 983 510 949 454 881 c
399 814 371 717 371 590 c
371 0 l
186 0 l
186 1120 l
371 1120 l
371 946 l
410 1014 460 1064 522 1097 c
584 1130 659 1147 748 1147 c
761 1147 775 1146 790 1144 c
805 1143 822 1140 841 1137 c
842 948 l

ce} _d
/s{1067 0 111 -29 967 1147 sc
907 1087 m
907 913 l
855 940 801 960 745 973 c
689 986 631 993 571 993 c
480 993 411 979 365 951 c
320 923 297 881 297 825 c
297 782 313 749 346 724 c
379 700 444 677 543 655 c
606 641 l
737 613 829 573 884 522 c
939 471 967 400 967 309 c
967 205 926 123 843 62 c
761 1 648 -29 504 -29 c
444 -29 381 -23 316 -11 c
251 0 183 18 111 41 c
111 231 l
179 196 246 169 312 151 c
378 134 443 125 508 125 c
595 125 661 140 708 169 c
755 199 778 241 778 295 c
778 345 761 383 727 410 c
694 437 620 462 506 487 c
442 502 l
328 526 246 563 195 612 c
144 662 119 730 119 817 c
119 922 156 1004 231 1061 c
306 1118 412 1147 549 1147 c
617 1147 681 1142 741 1132 c
801 1122 856 1107 907 1087 c

ce} _d
/t{803 0 55 0 754 1438 sc
375 1438 m
375 1120 l
754 1120 l
754 977 l
375 977 l
375 369 l
375 278 387 219 412 193 c
437 167 488 154 565 154 c
754 154 l
754 0 l
565 0 l
423 0 325 26 271 79 c
217 132 190 229 190 369 c
190 977 l
55 977 l
55 1120 l
190 1120 l
190 1438 l
375 1438 l

ce} _d
/x{1212 0 59 0 1145 1120 sc
1124 1120 m
719 575 l
1145 0 l
928 0 l
602 440 l
276 0 l
59 0 l
494 586 l
96 1120 l
313 1120 l
610 721 l
907 1120 l
1124 1120 l

ce} _d
/y{1212 0 61 -426 1151 1120 sc
659 -104 m
607 -237 556 -324 507 -365 c
458 -406 392 -426 309 -426 c
162 -426 l
162 -272 l
270 -272 l
321 -272 360 -260 388 -236 c
416 -212 447 -155 481 -66 c
514 18 l
61 1120 l
256 1120 l
606 244 l
956 1120 l
1151 1120 l
659 -104 l

ce} _d
/z{1075 0 88 0 987 1120 sc
113 1120 m
987 1120 l
987 952 l
295 147 l
987 147 l
987 0 l
88 0 l
88 168 l
780 973 l
113 973 l
113 1120 l

ce} _d
end readonly def

/BuildGlyph {
 exch begin
 CharStrings exch
 2 copy known not {pop /.notdef} if
 true 3 1 roll get exec
 end
} _d

/BuildChar {
 1 index /Encoding get exch get
 1 index /BuildGlyph get exec
} _d

FontName currentdict end definefont pop
end
%%EndProlog
mpldict begin
0 0 translate
0 0 460.8 345.6 rectclip
gsave
0 0 m
460.8 0 l
460.8 345.6 l
0 345.6 l
cl
1 setgray
fill
grestore
gsave
57.6 38.016 m
414.72 38.016 l
414.72 304.128 l
57.6 304.128 l
cl
1 setgray
fill
grestore
0.8 setlinewidth
1 setlinejoin
2 setlinecap
[] 0 setdash
0.69 setgray
gsave
57.6 38.016 357.12 266.112 rectclip
73.75541 38.016 m
73.75541 304.128 l
stroke
grestore
0 setlinecap
0 setgray
gsave
/o {
gsave
newpath
translate
0.8 setlinewidth
1 setlinejoin

0 setlinecap

0 0 m
0 -3.5 l

gsave
0 setgray
fill
grestore
stroke
grestore
} bind def
73.7554 38.016 o
grestore
/DejaVuSans 10.000 selectfont
gsave

65.8023 23.4222 translate
0 rotate
0 0 m /zero glyphshow
6.3623 0 m /period glyphshow
9.54102 0 m /zero glyphshow
grestore
2 setlinecap
0.69 setgray
gsave
57.6 38.016 357.12 266.112 rectclip
138.701782 38.016 m
138.701782 304.128 l
stroke
grestore
0 setlinecap
0 setgray
gsave
/o {
gsave
newpath
translate
0.8 setlinewidth
1 setlinejoin

0 setlinecap

0 0 m
0 -3.5 l

gsave
0 setgray
fill
grestore
stroke
grestore
} bind def
138.702 38.016 o
grestore
/DejaVuSans 10.000 selectfont
gsave

130.749 23.4222 translate
0 rotate
0 0 m /zero glyphshow
6.3623 0 m /period glyphshow
9.54102 0 m /one glyphshow
grestore
2 setlinecap
0.69 setgray
gsave
57.6 38.016 357.12 266.112 rectclip
203.648155 38.016 m
203.648155 304.128 l
stroke
grestore
0 setlinecap
0 setgray
gsave
/o {
gsave
newpath
translate
0.8 setlinewidth
1 setlinejoin

0 setlinecap

0 0 m
0 -3.5 l

gsave
0 setgray
fill
grestore
stroke
grestore
} bind def
203.648 38.016 o
grestore
/DejaVuSans 10.000 selectfont
gsave

195.695 23.4222 translate
0 rotate
0 0 m /zero glyphshow
6.3623 0 m /period glyphshow
9.54102 0 m /two glyphshow
grestore
2 setlinecap
0.69 setgray
gsave
57.6 38.016 357.12 266.112 rectclip
268.594528 38.016 m
268.594528 304.128 l
stroke
grestore
0 setlinecap
0 setgray
gsave
/o {
gsave
newpath
translate
0.8 setlinewidth
1 setlinejoin

0 setlinecap

0 0 m
0 -3.5 l

gsave
0 setgray
fill
grestore
stroke
grestore
} bind def
268.595 38.016 o
grestore
/DejaVuSans 10.000 selectfont
gsave

260.641 23.4222 translate
0 rotate
0 0 m /zero glyphshow
6.3623 0 m /period glyphshow
9.54102 0 m /three glyphshow
grestore
2 setlinecap
0.69 setgray
gsave
57.6 38.016 357.12 266.112 rectclip
333.5409 38.016 m
333.5409 304.128 l
stroke
grestore
0 setlinecap
0 setgray
gsave
/o {
gsave
newpath
translate
0.8 setlinewidth
1 setlinejoin

0 setlinecap

0 0 m
0 -3.5 l

gsave
0 setgray
fill
grestore
stroke
grestore
} bind def
333.541 38.016 o
grestore
/DejaVuSans 10.000 selectfont
gsave

325.588 23.4222 translate
0 rotate
0 0 m /zero glyphshow
6.3623 0 m /period glyphshow
9.54102 0 m /four glyphshow
grestore
2 setlinecap
0.69 setgray
gsave
57.6 38.016 357.12 266.112 rectclip
398.487273 38.016 m
398.487273 304.128 l
stroke
grestore
0 setlinecap
0 setgray
gsave
/o {
gsave
newpath
translate
0.8 setlinewidth
1 setlinejoin

0 setlinecap

0 0 m
0 -3.5 l

gsave
0 setgray
fill
grestore
stroke
grestore
} bind def
398.487 38.016 o
grestore
/DejaVuSans 10.000 selectfont
gsave

390.534 23.4222 translate
0 rotate
0 0 m /zero glyphshow
6.3623 0 m /period glyphshow
9.54102 0 m /five glyphshow
grestore
/DejaVuSans 10.000 selectfont
gsave

215.777 9.75037 translate
0 rotate
0 0 m /T glyphshow
5.8584 0 m /i glyphshow
8.63672 0 m /m glyphshow
18.3779 0 m /e glyphshow
24.5303 0 m /space glyphshow
27.709 0 m /bracketleft glyphshow
31.6104 0 m /s glyphshow
36.8203 0 m /bracketright glyphshow
grestore
2 setlinecap
0.69 setgray
gsave
57.6 38.016 357.12 266.112 rectclip
57.6 69.375922 m
414.72 69.375922 l
stroke
grestore
0 setlinecap
0 setgray
gsave
/o {
gsave
newpath
translate
0.8 setlinewidth
1 setlinejoin

0 setlinecap

-0 0 m
-3.5 0 l

gsave
0 setgray
fill
grestore
stroke
grestore
} bind def
57.6 69.3759 o
grestore
/DejaVuSans 10.000 selectfont
gsave

26.3188 65.579 translate
0 rotate
0 0 m /minus glyphshow
8.37891 0 m /one glyphshow
14.7412 0 m /period glyphshow
17.9199 0 m /zero glyphshow
grestore
2 setlinecap
0.69 setgray
gsave
57.6 38.016 357.12 266.112 rectclip
57.6 119.438109 m
414.72 119.438109 l
stroke
grestore
0 setlinecap
0 setgray
gsave
/o {
gsave
newpath
translate
0.8 setlinewidth
1 setlinejoin

0 setlinecap

-0 0 m
-3.5 0 l

gsave
0 setgray
fill
grestore
stroke
grestore
} bind def
57.6 119.438 o
grestore
/DejaVuSans 10.000 selectfont
gsave

26.3188 115.641 translate
0 rotate
0 0 m /minus glyphshow
8.37891 0 m /zero glyphshow
14.7412 0 m /period glyphshow
17.9199 0 m /five glyphshow
grestore
2 setlinecap
0.69 setgray
gsave
57.6 38.016 357.12 266.112 rectclip
57.6 169.500296 m
414.72 169.500296 l
stroke
grestore
0 setlinecap
0 setgray
gsave
/o {
gsave
newpath
translate
0.8 setlinewidth
1 setlinejoin

0 setlinecap

-0 0 m
-3.5 0 l

gsave
0 setgray
fill
grestore
stroke
grestore
} bind def
57.6 169.5 o
grestore
/DejaVuSans 10.000 selectfont
gsave

34.6938 165.703 translate
0 rotate
0 0 m /zero glyphshow
6.3623 0 m /period glyphshow
9.54102 0 m /zero glyphshow
grestore
2 setlinecap
0.69 setgray
gsave
57.6 38.016 357.12 266.112 rectclip
57.6 219.562483 m
414.72 219.562483 l
stroke
grestore
0 setlinecap
0 setgray
gsave
/o {
gsave
newpath
translate
0.8 setlinewidth
1 setlinejoin

0 setlinecap

-0 0 m
-3.5 0 l

gsave
0 setgray
fill
grestore
stroke
grestore
} bind def
57.6 219.562 o
grestore
/DejaVuSans 10.000 selectfont
gsave

34.6938 215.766 translate
0 rotate
0 0 m /zero glyphshow
6.3623 0 m /period glyphshow
9.54102 0 m /five glyphshow
grestore
2 setlinecap
0.69 setgray
gsave
57.6 38.016 357.12 266.112 rectclip
57.6 269.62467 m
414.72 269.62467 l
stroke
grestore
0 setlinecap
0 setgray
gsave
/o {
gsave
newpath
translate
0.8 setlinewidth
1 setlinejoin

0 setlinecap

-0 0 m
-3.5 0 l

gsave
0 setgray
fill
grestore
stroke
grestore
} bind def
57.6 269.625 o
grestore
/DejaVuSans 10.000 selectfont
gsave

34.6938 265.828 translate
0 rotate
0 0 m /one glyphshow
6.3623 0 m /period glyphshow
9.54102 0 m /zero glyphshow
grestore
/DejaVuSans 10.000 selectfont
gsave

57.6 307.128 translate
0 rotate
0 0 m /one glyphshow
6.3623 0 m /e glyphshow
12.5146 0 m /minus glyphshow
20.8936 0 m /five glyphshow
grestore
1.5 setlinewidth
2 setlinecap
0.122 0.467 0.706 setrgbcolor
gsave
57.6 38.016 357.12 266.112 rectclip
73.832727 169.500296 m
398.487273 169.500296 l
398.487273 169.500296 l
stroke
grestore
1 0.498 0.055 setrgbcolor
gsave
57.6 38.016 357.12 266.112 rectclip
73.832727 169.500296 m
398.487273 169.500296 l
398.487273 169.500296 l
stroke
grestore
0.173 0.627 0.173 setrgbcolor
gsave
57.6 38.016 357.12 266.112 rectclip
73.832727 167.60465 m
74.033466 170.058212 l
74.162978 170.151536 l
74.495 169.428449 l
74.708147 169.240402 l
75.238473 169.25677 l
76.389278 169.339024 l
93.829749 169.530119 l
105.933415 169.507757 l
107.409451 169.507021 l
113.018415 169.460647 l
113.904088 169.401865 l
116.856161 169.425135 l
125.417327 169.488027 l
129.255008 169.309722 l
129.550254 169.12418 l
130.140682 169.229942 l
131.02629 169.082032 l
132.207145 169.704729 l
132.797573 169.914578 l
133.092754 169.938198 l
133.683181 169.675505 l
134.273609 169.523104 l
134.568855 169.324163 l
135.159283 169.416268 l
136.044891 169.699564 l
136.340073 169.822804 l
136.635319 169.725617 l
136.9305 169.505733 l
137.520928 169.455312 l
138.111355 169.523108 l
138.406601 169.425436 l
138.997288 169.111559 l
139.587651 169.273273 l
139.882508 168.991781 l
140.178014 168.972106 l
141.063233 169.28639 l
142.83497 169.183912 l
143.129826 168.955959 l
143.425332 168.888515 l
144.900914 169.295734 l
145.19642 169.592215 l
145.491926 169.688294 l
145.786782 169.619052 l
146.082288 169.86228 l
146.377145 169.947182 l
147.55787 169.553255 l
151.691057 169.59938 l
153.757651 169.521764 l
160.252288 169.270021 l
160.547144 169.35114 l
160.84265 169.177613 l
161.137507 169.51503 l
161.433013 169.287761 l
161.728519 169.576827 l
162.023375 169.346728 l
162.318881 169.623012 l
162.613738 169.437497 l
163.2041 169.95395 l
163.499606 170.027621 l
164.680332 169.808429 l
164.975837 170.071101 l
165.270694 170.152582 l
166.156563 170.011779 l
166.746925 169.431131 l
167.041782 169.391447 l
167.632144 169.551279 l
167.92765 169.426918 l
168.223156 169.165147 l
168.813519 168.410796 l
169.108375 168.24451 l
169.403881 168.37727 l
169.994244 168.89091 l
170.2891 168.994701 l
170.584606 169.390743 l
170.879463 169.492413 l
171.174969 168.976349 l
171.765331 169.289377 l
172.060837 168.849124 l
172.355694 169.112678 l
172.6512 169.556054 l
173.241562 168.947707 l
173.536419 169.397327 l
173.831925 169.481727 l
175.01265 169.246111 l
176.193375 169.372723 l
176.488881 169.089796 l
176.783737 169.155493 l
177.079243 169.60257 l
177.3741 169.423034 l
177.669606 169.390928 l
178.555475 169.68396 l
178.850331 169.415672 l
179.145837 168.956165 l
179.440694 169.041271 l
180.031056 169.417231 l
180.326562 169.485904 l
180.916925 169.201422 l
181.212431 169.341158 l
181.507287 169.061982 l
182.09765 169.52315 l
182.393156 169.779298 l
182.983518 169.870911 l
183.278375 169.536979 l
183.573881 169.373281 l
183.868737 169.418562 l
184.164243 169.854257 l
184.459749 169.899377 l
185.050112 169.7356 l
185.344968 169.105119 l
185.640474 168.906138 l
185.935331 168.982528 l
186.525693 168.928451 l
187.707068 169.041216 l
188.29743 169.277848 l
188.887793 168.938279 l
189.182649 168.913825 l
189.773012 169.111561 l
190.068518 169.644199 l
190.658881 169.652955 l
191.249243 169.808134 l
191.839606 170.639415 l
192.135112 170.550113 l
192.725474 170.689697 l
193.020331 170.648828 l
193.315837 170.214235 l
193.610693 170.117277 l
194.201705 170.381847 l
194.496562 170.259249 l
194.792068 169.918793 l
195.086924 169.825513 l
195.38243 169.959048 l
195.677287 169.87648 l
195.972793 169.617543 l
196.267649 169.184333 l
196.563155 169.044824 l
196.858012 169.059424 l
197.153518 168.893128 l
197.449024 168.920252 l
198.334243 168.410899 l
198.924605 168.165335 l
199.810474 167.782816 l
200.10533 167.648839 l
200.696342 167.730556 l
201.581561 168.107514 l
202.762287 168.171336 l
203.057793 168.461361 l
203.943661 168.652905 l
204.238518 168.918589 l
204.534024 168.827323 l
204.82888 169.338858 l
205.124386 169.283628 l
205.419243 169.551344 l
206.009605 170.538547 l
206.305111 170.773837 l
206.599968 170.836153 l
207.19098 170.728621 l
207.781342 170.771701 l
209.847286 170.703332 l
210.438298 170.580071 l
211.028661 169.910551 l
211.323517 169.371335 l
212.209386 169.148432 l
212.799748 168.560249 l
213.980473 168.212198 l
214.275979 168.199238 l
214.866342 167.941241 l
215.161199 167.898858 l
215.751561 168.256547 l
216.341924 167.900285 l
217.227792 168.432047 l
217.523298 168.201801 l
217.818155 168.301315 l
218.99888 169.36502 l
219.589242 170.039684 l
219.884748 170.175772 l
220.180254 170.534987 l
220.475111 170.475024 l
221.360979 171.405757 l
221.655836 171.349117 l
222.836561 171.701692 l
223.132067 171.606755 l
223.427573 171.641359 l
225.19866 170.18246 l
227.56011 167.538184 l
227.855616 167.325314 l
228.150473 166.942973 l
228.445979 167.018774 l
229.331198 166.660316 l
229.626704 166.808286 l
230.217067 166.703765 l
231.397792 167.595648 l
231.693298 167.958086 l
231.988154 168.11242 l
232.28366 168.592102 l
232.874023 169.8625 l
235.530979 173.262647 l
235.825835 173.237936 l
236.711704 173.642819 l
238.187935 172.730214 l
238.482791 172.382193 l
239.073154 171.144315 l
239.959022 169.768352 l
240.844891 167.884326 l
241.435254 167.10312 l
242.320473 165.734652 l
242.911485 165.021556 l
243.206341 165.060489 l
243.501847 165.332918 l
244.09221 165.286087 l
244.977429 165.669269 l
245.272935 165.91334 l
245.567791 166.5251 l
245.863297 166.788322 l
247.044022 169.727936 l
247.929891 171.11586 l
248.81511 173.30405 l
249.406122 174.440634 l
249.996484 175.163149 l
250.291341 175.41246 l
250.586847 175.498602 l
251.472066 175.002459 l
252.357934 174.05678 l
252.948297 172.657003 l
253.834166 170.226517 l
254.129022 169.708962 l
254.719385 167.852465 l
256.195616 164.126135 l
256.491122 163.665996 l
257.081484 163.02645 l
257.376341 163.12905 l
257.966703 162.588732 l
258.262209 162.55475 l
258.852572 162.914929 l
259.442934 163.875708 l
260.623659 167.38287 l
261.214022 169.284739 l
262.09989 173.266316 l
262.985759 175.427903 l
264.166484 177.641407 l
264.46134 177.99672 l
264.756846 178.009056 l
265.051703 178.231141 l
265.937572 177.204186 l
266.527934 175.7302 l
268.299022 169.414857 l
269.480396 164.151594 l
270.365615 160.792551 l
270.955978 159.365972 l
271.251484 158.851534 l
271.841846 158.399273 l
272.137352 158.517568 l
273.318077 160.016976 l
273.90844 162.169037 l
274.203296 163.315292 l
277.155758 179.653148 l
277.746121 181.812508 l
278.336483 183.03344 l
278.631989 183.639536 l
278.926846 183.721646 l
279.222352 184.17152 l
279.517209 183.853653 l
280.107571 182.655716 l
280.697934 180.129246 l
282.174165 171.688558 l
284.535615 155.315374 l
285.421483 152.017894 l
285.716989 151.479207 l
286.011846 151.333775 l
286.602208 151.943458 l
287.192571 153.635636 l
287.488077 154.774131 l
288.078439 158.349504 l
289.259164 167.422569 l
291.621264 187.222977 l
292.506483 191.056922 l
292.801989 191.548141 l
293.096846 191.704224 l
293.392352 191.65829 l
293.687208 191.122883 l
294.277571 189.039929 l
295.163439 182.994875 l
296.344164 171.449291 l
298.115901 152.302639 l
299.00112 144.869166 l
299.591483 142.265514 l
299.886989 141.44996 l
300.181845 141.326335 l
300.477351 141.527652 l
300.772208 142.259304 l
301.36322 145.161097 l
301.953582 149.604152 l
302.838801 159.319536 l
304.019527 175.120099 l
305.200901 190.505027 l
306.08612 199.215434 l
306.381626 201.715178 l
306.676483 203.085477 l
306.971989 203.922674 l
307.266845 204.115686 l
307.562351 203.852435 l
307.857857 202.946944 l
308.152714 201.456915 l
308.743076 196.315582 l
309.628945 185.53861 l
310.514164 171.986567 l
312.285901 143.537788 l
313.17112 132.870275 l
313.761482 129.04441 l
314.056988 127.911839 l
314.352494 127.330327 l
314.647351 127.853958 l
314.942857 128.84606 l
315.533219 133.143227 l
316.123582 139.999813 l
317.008801 153.90498 l
319.961263 209.196895 l
320.551626 215.596307 l
321.141988 219.260254 l
321.437494 219.793162 l
321.732351 219.506729 l
322.027857 218.555639 l
322.322713 216.88716 l
322.618219 214.317646 l
323.208582 206.293791 l
324.09445 189.76547 l
325.570032 155.392892 l
326.750757 129.699738 l
327.341769 119.87947 l
327.932131 113.248151 l
328.226988 111.12413 l
328.522494 109.875511 l
328.81735 109.721943 l
329.112856 110.687068 l
329.407713 112.620844 l
329.998076 119.25976 l
330.589088 129.34882 l
331.474307 149.648837 l
334.426769 224.55721 l
335.017131 233.312623 l
335.607494 238.024496 l
335.90235 238.730985 l
336.197856 238.284504 l
336.492713 236.728835 l
336.788219 234.039354 l
337.378581 225.446043 l
337.968944 212.977777 l
338.854812 188.853641 l
341.511768 110.473633 l
342.102131 99.217686 l
342.692494 92.350086 l
342.98735 90.791224 l
343.282856 90.440932 l
343.578362 91.393526 l
343.873219 93.607469 l
344.463581 101.750105 l
345.053944 114.39582 l
345.939812 140.119795 l
348.891625 237.25587 l
349.481987 249.238702 l
350.072999 256.203603 l
350.367856 257.635754 l
350.663362 257.666567 l
350.958218 256.258886 l
351.253724 253.466436 l
351.844087 243.868841 l
352.434449 229.382262 l
353.320318 200.50979 l
356.272131 94.028874 l
356.862493 81.284001 l
357.452856 74.092637 l
357.748362 72.738482 l
358.043218 72.914315 l
358.338724 74.628015 l
358.633581 77.832868 l
359.223943 88.617416 l
359.814955 104.581135 l
360.700174 136.114595 l
363.35713 242.28196 l
363.947493 258.448305 l
364.537855 269.135415 l
364.833361 272.149411 l
365.128218 273.535517 l
365.423724 273.302581 l
365.71858 271.411756 l
366.014086 267.902376 l
366.604449 256.320106 l
367.194811 239.291526 l
368.08068 205.644793 l
370.737636 92.637593 l
371.327999 75.453715 l
371.918361 64.048942 l
372.213218 60.764377 l
372.508724 59.229726 l
372.80423 59.414935 l
373.099086 61.31637 l
373.394592 64.926812 l
373.984955 76.896508 l
374.575317 94.671725 l
375.460536 129.814025 l
378.412998 258.45085 l
379.003361 273.868865 l
379.593723 282.785013 l
379.889229 284.605817 l
380.184086 284.613627 l
380.479592 282.858288 l
380.774449 279.325414 l
381.364811 267.220065 l
381.955174 249.1204 l
382.841042 213.028894 l
385.793504 78.909661 l
386.383867 62.472356 l
386.974229 52.644088 l
387.269086 50.460359 l
387.564592 50.112 l
387.859448 51.612925 l
388.154954 54.939831 l
388.745317 66.805828 l
389.335679 84.956222 l
390.221548 121.531087 l
393.173361 260.228331 l
393.763723 277.71459 l
394.354086 288.58225 l
394.649592 291.264555 l
394.944448 292.032 l
395.239954 290.893597 l
395.53546 287.92194 l
396.125823 276.56665 l
396.716185 258.66188 l
397.601404 222.005432 l
398.487273 177.749937 l
398.487273 177.749937 l
stroke
grestore
0.8 setlinewidth
0 setlinejoin
0 setgray
gsave
57.6 38.016 m
57.6 304.128 l
stroke
grestore
gsave
414.72 38.016 m
414.72 304.128 l
stroke
grestore
gsave
57.6 38.016 m
414.72 38.016 l
stroke
grestore
gsave
57.6 304.128 m
414.72 304.128 l
stroke
grestore
/DejaVuSans 12.000 selectfont
gsave

194.941 310.128 translate
0 rotate
0 0 m /S glyphshow
7.61719 0 m /p glyphshow
15.2344 0 m /l glyphshow
18.5684 0 m /i glyphshow
21.9023 0 m /t glyphshow
26.6074 0 m /t glyphshow
31.3125 0 m /e glyphshow
38.6953 0 m /r glyphshow
43.6289 0 m /F glyphshow
50.1562 0 m /o glyphshow
57.498 0 m /r glyphshow
62.1816 0 m /c glyphshow
68.7793 0 m /e glyphshow
76.1621 0 m /s glyphshow
grestore
1 setlinewidth
0 setlinecap
0.8 setgray
gsave
64.6 251.268625 m
162.50625 251.268625 l
163.839583 251.268625 164.50625 251.935292 164.50625 253.268625 c
164.50625 297.128 l
164.50625 298.461333 163.839583 299.128 162.50625 299.128 c
64.6 299.128 l
63.266667 299.128 62.6 298.461333 62.6 297.128 c
62.6 253.268625 l
62.6 251.935292 63.266667 251.268625 64.6 251.268625 c
cl
gsave
1 setgray
fill
grestore
stroke
grestore
1.5 setlinewidth
1 setlinejoin
2 setlinecap
0.122 0.467 0.706 setrgbcolor
gsave
66.6 291.03425 m
76.6 291.03425 l
86.6 291.03425 l
stroke
grestore
0 setgray
/DejaVuSans 10.000 selectfont
gsave

94.6 287.534 translate
0 rotate
0 0 m /M glyphshow
8.62793 0 m /underscore glyphshow
13.6279 0 m /x glyphshow
19.5459 0 m /space glyphshow
22.7246 0 m /bracketleft glyphshow
26.626 0 m /N glyphshow
34.1064 0 m /asterisk glyphshow
39.1064 0 m /m glyphshow
48.8477 0 m /slash glyphshow
52.2168 0 m /m glyphshow
61.958 0 m /bracketright glyphshow
grestore
1 0.498 0.055 setrgbcolor
gsave
66.6 276.081125 m
76.6 276.081125 l
86.6 276.081125 l
stroke
grestore
0 setgray
/DejaVuSans 10.000 selectfont
gsave

94.6 272.581 translate
0 rotate
0 0 m /M glyphshow
8.62793 0 m /underscore glyphshow
13.6279 0 m /y glyphshow
19.5459 0 m /space glyphshow
22.7246 0 m /bracketleft glyphshow
26.626 0 m /N glyphshow
34.1064 0 m /asterisk glyphshow
39.1064 0 m /m glyphshow
48.8477 0 m /slash glyphshow
52.2168 0 m /m glyphshow
61.958 0 m /bracketright glyphshow
grestore