# vtk DataFile Version 2.0
sampleSurface
ASCII
DATASET POLYDATA
POINTS 15978 float
-4.26165e-19 0.000133477 0 -4.18079e-19 -0.000798814 0 -4.33681e-19 0.001 0 -4.09379e-19 -0.00180187
0 -0.00181681 0.000361473 0 0.00181681 0.000361473 0 -0.00181396 -0.000575145 0
0.00181396 -0.000575145 0 -0.00181945 0.00123202 0 0.00181945 0.00123202 0 -0.00181089
-0.00158285 0 0.00181089 -0.00158285 0 -4.00018e-19 -0.00288105 0 -0.00180759 -0.00266704
0 0.00180759 -0.00266704 0 -0.00351565 8.15481e-05 0 0.00351565 8.15481e-05 0
-0.00351186 -0.000939823 0 0.00351186 -0.000939823 0 -0.00351918 0.00103087 0 0.00351918
0.00103087 0 -0.00352245 0.00191322 0 0.00352245 0.00191322 0 -3.89947e-19 -0.00404214
0 -0.00350777 -0.00203871 0 0.00350777 -0.00203871 0 -0.00180405 -0.00383352 0
0.00180405 -0.00383352 0 -0.00350338 -0.00322101 0 0.00350338 -0.00322101 0 -0.005
8.60602e-05 0 0.005 8.60602e-05 0 -0.005 -0.00103629 0 0.005 -0.00103629
0 -0.005 0.00112923 0 0.005 0.00112923 0 -3.79112e-19 -0.00529135 0
-0.00180023 -0.00508853 0 0.00180023 -0.00508853 0 -0.005 0.00209882 0 0.005
0.00209882 0 -0.005 -0.00224382 0 0.005 -0.00224382 0 -0.00349866 -0.00449304
0 0.00349866 -0.00449304 0 -0.005 0.003 0 0.005 0.003 0
-0.005 -0.003543 0 0.005 -0.003543 0 -0.00637208 2.82617e-05 0 0.00639053
4.25732e-05 0 -0.00637208 0.00114892 0 -0.00637208 -0.00117745 0 0.00639053 -0.00116311
0 0.00639053 0.00116321 0 -3.67455e-19 -0.00663538 0 -0.00179612 -0.00643879 0
0.00179612 -0.00643879 0 -0.00637208 0.00219052 0 0.00639053 0.00220479 0 -0.00349357
-0.00586162 0 0.00349357 -0.00586162 0 -0.00637208 -0.00247467 0 0.00639053 -0.00246031
0 -0.005 -0.00494079 0 0.005 -0.00494079 0 -0.00637208 0.00315864 0
0.00639053 0.00317289 0 -0.00637208 -0.00387036 0 0.00639053 -0.00385597 0 -0.00637208
0.00405846 0 0.00639053 0.00407269 0 -0.00778421 -7.99569e-05 0 0.00781802 -5.3679e-05
0 -0.00778421 0.00112388 0 0.00781802 0.00115011 0 -0.00778421 -0.00137517 0
0.00781802 -0.00134884 0 -3.54912e-19 -0.00808142 0 -0.0017917 -0.00789154 0 0.0017917
-0.00789154 0 -0.00778421 0.0022428 0 -0.0034881 -0.00733407 0 0.0034881 -0.00733407
0 0.00781802 0.00226899 0 -0.005 -0.00644467 0 0.005 -0.00644467 0
-0.00778421 -0.00276868 0 0.00781802 -0.0027423 0 -0.00637208 -0.00537197 0 0.00639053
-0.00535755 0 -0.00778421 0.00328278 0 0.00781802 0.00330893 0 -0.00778421 0.00424939
0 -0.00778421 -0.00426796 0 0.00781802 -0.00424152 0 0.00781802 0.00427551 0
-0.00923755 -0.000243565 0 0.00928347 -0.000207818 0 -0.00923755 0.00104957 0 -0.00778421
0.00514782 0 0.00928347 0.00108525 0 0.00781802 0.0051739 0 -0.00923755 -0.00163485
0 0.00928347 -0.00159903 0 -0.00637208 -0.00698755 0 0.00639053 -0.0069731 0
-0.005 -0.0080627 0 0.005 -0.0080627 0 -0.00923755 0.00225148 0 0.00928347
0.0022871 0 -0.00348222 -0.00891827 0 0.00348222 -0.00891827 0 -0.00178695 -0.00945455
0 0.00178695 -0.00945455 0 -3.41418e-19 -0.00963721 0 -0.00923755 -0.00313172 0
-0.00778421 -0.00588103 0 0.00781802 -0.00585453 0 0.00928347 -0.00309583 0 -0.00923755
0.0033686 0 0.00928347 0.00340416 0 -0.00923755 0.00440692 0 0.00928347 0.00444243
0 -0.00923755 -0.00474221 0 0.00928347 -0.00470623 0 -0.00923755 0.00537198 0
-0.0107333 -0.000467921 0 0.00928347 0.00540745 0 -0.0107333 0.000921062 0 0.0107879
-0.000425364 0 0.00639053 -0.00871127 0 -0.00637208 -0.00872575 0 0.0107879 0.000963535
0 -0.00778421 -0.00761653 0 0.00781802 -0.00758997 0 -0.0107333 -0.00196233 0
0.0107879 -0.00191968 0 -0.0107333 0.00221206 0 -0.005 -0.00980352 0 0.005
-0.00980352 0 0.0107879 0.00225445 0 -0.00923755 0.00626897 0 -0.00347589 -0.0106227
0 0.00347589 -0.0106227 0 0.00928347 0.00630439 0 -0.0107333 0.00341198 0
-0.00178183 -0.0111362 0 0.00178183 -0.0111362 0 -0.00923755 -0.00647493 0 0.00928347
-0.00643887 0 -3.26899e-19 -0.0113111 0 -0.0107333 -0.00357015 0 0.0107879 0.00345431
0 0.0107879 -0.00352741 0 -0.0107333 0.00452726 0 0.0107879 0.00456952 0
-0.0107333 -0.00530001 0 0.0107879 -0.00525717 0 -0.0107333 0.00556386 0 0.0107879
0.00560606 0 -0.000743369 0.0122055 0 0.000743369 0.0122055 0 -0.00778421 -0.00948375
0 0.00781802 -0.00945713 0 -0.0122727 0.000733061 0 -0.0122727 -0.000758799 0
0.0123323 -0.000712262 0 0.0123323 0.0007795 0 0.00639053 -0.0105814 0 -0.00637208
-0.0105959 0 -0.00923755 -0.00833916 0 -0.0122727 0.00211968 0 0.00928347 -0.00830301
0 -0.0122727 -0.00236389 0 0.0123323 0.00216603 0 0.0123323 -0.00231725 0
-0.0107333 0.00652734 0 0.0107879 0.00656947 0 -0.005 -0.0116765 0 0.005
-0.0116765 0 -0.0122727 0.00340848 0 0.0123323 0.00345474 0 -0.000741126 0.0128136
0 0.000741126 0.0128136 0 -0.0107333 -0.00716117 0 0.0107879 -0.00711821 0
-0.00346908 -0.0124565 0 0.00346908 -0.0124565 0 -0.0122727 -0.00409081 0 0.0123323
-0.00404405 0 -0.0107333 0.00742284 0 -0.00177633 -0.0129455 0 0.00177633 -0.0129455
0 -0.0122727 0.00460636 0 -3.11279e-19 -0.013112 0 0.0107879 0.00746492 0
-0.002 0.013 0 0.002 0.013 0 0.0123323 0.00465255 0 -0.0007387
0.0134712 0 0.0007387 0.0134712 0 -0.0122727 0.00571974 0 0.0123323 0.00576585
0 -0.0122727 -0.00594879 0 0.0123323 -0.00590191 0 -0.002 0.0135849 0
0.002 0.0135849 0 -0.0138571 0.000479853 0 -0.00923755 -0.0103449 0 0.00928347
-0.0103086 0 0.00781802 -0.011466 0 -0.00778421 -0.0114927 0 -0.0138571 -0.00112242
0 0.0139177 0.000527252 0 0.0139177 -0.00107491 0 -0.0138571 0.0019691 0
-0.0122727 0.00675458 0 0.0139177 0.00201639 0 0.0123323 0.00680062 0 -0.0107333
-0.00916358 0 0.00639053 -0.0125934 0 0.0107879 -0.0091205 0 -0.00637208 -0.012608
0 -0.0138571 -0.0028463 0 0.0139177 -0.00279868 0 -0.000736077 0.0141824 0
0.000736077 0.0141824 0 -0.00319452 0.0138829 0 0.00320133 0.0138879 0 -0.0138571
0.00335328 0 0.0139177 0.00340049 0 -0.002 0.0142174 0 0.002 0.0142174
0 -0.0122727 0.00771641 0 0.0123323 0.00776239 0 -0.005 -0.0136916 0
0.005 -0.0136916 0 -0.0138571 0.00463982 0 -0.0122727 -0.0079478 0 -0.0138571
-0.00470103 0 0.0123323 -0.00790078 0 0.0139177 -0.00465328 0 0.0139177 0.00468694
0 -0.00319452 0.0144678 0 0.00320133 0.0144728 0 -0.00346175 -0.0144295 0
0.00346175 -0.0144295 0 -0.00073324 0.0149515 0 0.00073324 0.0149515 0 -0.0122727
0.00861039 0 -0.00177041 -0.0148921 0 0.00177041 -0.0148921 0 -0.002 0.0149014
0 0.002 0.0149014 0 -0.0138571 0.0058356 0 -2.94473e-19 -0.0150496 0
0.0123323 0.00865631 0 0.0139177 0.00588264 0 -0.0138571 -0.00669653 0 0.0139177
-0.00664864 0 -0.00319452 0.0151003 0 0.00320133 0.0151053 0 -0.0154877 0.000155282
0 -0.0138571 0.00694702 0 -0.00451419 0.0148583 0 0.0045263 0.0148673 0
0.00928347 -0.0124665 0 -0.00923755 -0.0125028 0 0.0155453 0.000200444 0 -0.0154877
-0.00156548 0 0.0139177 0.00699399 0 -0.0154877 0.00175466 0 -0.0107333 -0.011318
0 0.0107879 -0.0112748 0 0.0155453 -0.00152021 0 0.0155453 0.00179972 0
0.00781802 -0.0136273 0 -0.00778421 -0.0136541 0 -0.002 0.0156411 0 0.002
0.0156411 0 -0.000730172 0.0157833 0 0.000730172 0.0157833 0 -0.0154877 0.0032412
0 -0.0154877 -0.00341685 0 0.0155453 0.00328617 0 -0.0122727 -0.0100985 0
0.0155453 -0.00337146 0 0.0123323 -0.0100514 0 -0.0138571 0.00798004 0 0.0139177
0.00802694 0 0.00639053 -0.0147581 0 -0.00637208 -0.0147727 0 -0.00451419 0.0154432
0 0.0045263 0.0154521 0 -0.00319452 0.0157843 0 0.00320133 0.0157893 0
-0.0154877 0.00462288 0 0.0155453 0.00466776 0 -0.0154877 -0.00540874 0 -0.0138571
-0.00884348 0 0.0155453 -0.00536322 0 0.0139177 -0.00879545 0 -0.0138571 0.00894019
0 -0.002 0.0164411 0 0.002 0.0164411 0 0.0139177 0.00898702 0
-0.0154877 0.00590709 0 -0.005 -0.0158596 0 0.005 -0.0158596 0 0.0155453
0.00595189 0 -0.00451419 0.0160757 0 -0.000726854 0.0166828 0 0.000726854 0.0166828
0 0.0045263 0.0160846 0 -0.00319452 0.016524 0 0.00320133 0.016529 0
-0.00345386 -0.0165523 0 0.00345386 -0.0165523 0 -0.0138571 0.0098326 0 -0.00597213
0.0159359 0 0.00598764 0.0159474 0 -0.0154877 0.00710071 0 0.0139177 0.00987937
0 -0.00176404 -0.0169864 0 0.00176404 -0.0169864 0 0.0155453 0.00714543 0
-2.76391e-19 -0.0171343 0 -0.0171658 -0.000247278 0 0.0172162 -0.000207752 0 -0.0171658
0.00147028 0 -0.0154877 -0.0075518 0 0.0155453 -0.00750615 0 0.0172162 0.00150971
0 -0.0171658 -0.00209519 0 0.0172162 -0.00205556 0 0.0107879 -0.0135925 0
-0.0107333 -0.0136359 0 -0.00451419 0.0167597 0 0.0045263 0.0167686 0 -0.002
0.0173062 0 0.002 0.0173062 0 -0.0171658 0.00306667 0 -0.0122727 -0.0124125
0 0.00928347 -0.0147881 0 0.0123323 -0.0123652 0 -0.00923755 -0.0148246 0
0.0172162 0.00310601 0 -0.0154877 0.00821012 0 -0.00597213 0.0165208 0 0.00598764
0.0165323 0 0.0155453 0.00825477 0 -0.00319452 0.017324 0 0.00320133 0.017329
0 -0.0171658 -0.00408336 0 -0.000723266 0.0176555 0 0.000723266 0.0176555 0
0.0172162 -0.00404362 0 -0.0171658 0.00455044 0 0.00781802 -0.0159527 0 -0.00778421
-0.0159796 0 -0.0138571 -0.0111534 0 0.0139177 -0.0111052 0 0.0172162 0.0045897
0 -0.0154877 0.00924127 0 -0.00451419 0.0174994 0 0.0045263 0.0175084 0
0.0155453 0.00928585 0 -0.0171658 0.00592954 0 -0.00597213 0.0171533 0 0.00598764
0.0171648 0 0.0172162 0.00596872 0 0.00639053 -0.0170872 0 -0.00637208 -0.0171018
0 -0.0171658 -0.00622243 0 0.0172162 -0.00618257 0 -0.002 0.0182418 0
0.002 0.0182418 0 -0.0154877 -0.00985753 0 0.0155453 -0.00981172 0 -0.00319452
0.0181891 0 0.00320133 0.0181941 0 -0.0154877 0.0101997 0 0.0155453 0.0102442
0 -0.0171658 0.00721136 0 0.0172162 0.00725047 0 -0.000719385 0.0187075 0
0.000719385 0.0187075 0 -0.00758282 0.0171264 0 0.00759938 0.0171387 0 -0.00597213
0.0178373 0 0.00598764 0.0178488 0 -0.00451419 0.0182994 0 0.0045263 0.0183083
0 -0.005 -0.0181922 0 0.005 -0.0181922 0 -0.018893 -0.00073496 0
-0.018893 0.0011094 0 0.0189314 -0.000704684 0 0.0189314 0.0011396 0 -0.0154877
0.0110905 0 -0.018893 -0.0027193 0 -0.018893 0.00282365 0 -0.0171658 0.00840275
0 0.0189314 -0.00268894 0 0.0155453 0.0111349 0 0.0189314 0.00285377 0
-0.00344538 -0.0188361 0 0.00344538 -0.0188361 0 -0.0171658 -0.00852385 0 0.0172162
0.00844179 0 0.0172162 -0.00848386 0 -0.00758282 0.0177113 0 0.00759938 0.0177235
0 -0.0122727 -0.0149021 0 0.0123323 -0.0148546 0 -0.00175719 -0.0192397 0
[...]
CELL_DATA 15677
FIELD attributes 1
U 3 15677 float
-0.304871 10.2652 0 0.190475 10.9192 0 -0.101144 9.44667 0 0.0315569 10.9901
0 0.118845 10.7323 0 -0.0119273 8.75837 0 0.045528 11.0075 0
0.0144836 10.9815 0 0.0577126 10.4719 0 0.0115302 8.22936 0 0.0466953
11.0122 0 0.04339 11.0311 0 0.0260923 10.9286 0 0.0319071 10.1908
0 0.011323 7.85616 0 0.0440125 11.0135 0 0.0424053 11.0439 0
0.0428071 11.0209 0 0.0332368 10.8603 0 0.0213705 9.90296 0 0.0064412
7.61199 0 0.0413778 11.0136 0 0.0404465 11.0462 0 0.0402084 11.0448
0 0.0398934 11.0049 0 0.0328227 10.7692 0 0.0159517 9.63765 0
0.00250482 7.45883 0 0.0386373 11.0131 0 0.0389894 11.0453 0 0.0393837
11.0533 0 0.0385027 11.0446 0 0.0358502 10.9827 0 0.028858 10.6572
0 0.0121623 9.41254 0 0.000562531 7.36234 0 0.0356122 11.0123 0
0.0373736 11.0435 0 0.0387148 11.056 0 0.0384504 11.0587 0 0.0360524
11.0422 0 0.0318419 10.9529 0 0.0240792 10.5327 0 0.00902145 9.23757
0 1.60041e-05 7.30023 0 0.0323309 11.0113 0 0.0354637 11.0411 0
0.0376254 11.0557 0 0.0378898 11.064 0 0.036121 11.0634 0 0.0329181
11.0365 0 0.028421 10.9175 0 0.0194887 10.3982 0 0.00645966 9.10684
0 -0.000237929 7.25767 0 0.0288555 11.0101 0 0.0333326 11.0382 0
0.0362277 11.054 0 0.036944 11.0653 0 0.035562 11.0717 0 0.0329654
11.0663 0 0.029822 11.029 0 0.0254153 10.876 0 0.0154627 10.2695
0 0.00440526 9.01201 0 -0.000468681 7.23321 0 0.0252634 11.0089 0
0.0310033 11.0348 0 0.0345706 11.0514 0 0.0357256 11.0644 0 0.0346525
11.0746 0 0.0324124 11.0785 0 0.0297781 11.0688 0 0.0268338 11.0214
0 0.022209 10.8307 0 0.0118411 10.1595 0 0.00266438 8.94611 0
-0.000672491 7.2217 0 0.021551 11.0077 0 0.0284815 11.0312 0 0.0326463
11.0481 0 0.0342421 11.0623 0 0.0334541 11.0747 0 0.0314668 11.0833
0 0.0291173 11.0854 0 0.026631 11.0725 0 0.023546 11.0145 0
0.0185132 10.7847 0 0.00844599 10.0707 0 0.00109847 8.9041 0 -0.00108844
7.22372 0 0.0178452 11.0065 0 0.0258719 11.0273 0 0.0304407 11.0442
0 0.0324775 11.0592 0 0.0319706 11.0731 0 0.0301832 11.0845 0
0.0279844 11.0924 0 0.0257091 11.0939 0 0.0231449 11.0785 0 0.0198588
11.0091 0 0.0143921 10.7412 0 0.00513675 10.0055 0 -0.000545593 8.88315
0 -0.00170934 7.23905 0 0.014649 11.0053 0 0.0231864 11.0233 0
0.0279809 11.0398 0 0.0304139 11.0554 0 0.0301932 11.0703 0 0.0285773
11.0835 0 0.02645 11.0948 0 0.0242166 11.1034 0 0.021816 11.1051
0 0.0191215 11.0876 0 0.0156674 11.0064 0 0.00991543 10.7054 0
0.00166167 9.96306 0 -0.00221642 8.88129 0 -0.00237661 7.26803 0 0.0120688
11.0043 0 0.0206413 11.0196 0 0.0253025 11.0351 0 0.0280381 11.0508
0 0.0281056 11.0666 0 0.0266445 11.0812 0 0.0245395 11.0946 0
0.0222456 11.1071 0 0.0198061 11.1171 0 0.0172161 11.1198 0 0.0143762
11.1006 0 0.0107681 11.008 0 0.00502685 10.6803 0 -0.00191994 9.94238
0 -0.00410668 8.89776 0 -0.00320339 7.31081 0 0.00991517 11.0034 0
0.0183756 11.0164 0 0.0227014 11.0306 0 0.0253553 11.0457 0 0.0256881
11.062 0 0.0243677 11.0776 0 0.0222504 11.0926 0 0.0198247 11.1076
0 0.0172224 11.1221 0 0.0145123 11.1343 0 0.01172 11.1387 0
0.00872376 11.1185 0 0.00506835 11.0156 0 -0.000337306 10.6686 0 -0.0057858
9.94246 0 -0.00619632 8.93153 0 -0.0041207 7.36758 0 0.00824409 11.0027
0 0.016351 11.0136 0 0.0203506 11.0266 0 0.0226759 11.0407 0
0.0229299 11.0566 0 0.021726 11.0731 0 0.0195668 11.0893 0 0.0169518
11.106 0 0.0140921 11.1233 0 0.0111156 11.1407 0 0.00812099 11.156
0 0.00512595 11.163 0 0.00205168 11.1423 0 -0.00146739 11.0311 0
-0.00620578 10.6714 0 -0.00997601 9.96235 0 -0.00849711 8.98254 0 -0.00511874
7.43812 0 0.00686017 11.0021 0 0.0144499 11.0112 0 0.0181886 11.0231
0 0.020201 11.0362 0 0.0201347 11.0512 0 0.0187043 11.0676 0
0.016469 11.0848 0 0.0136121 11.1028 0 0.0104103 11.122 0 0.00704954
11.1425 0 0.00367978 11.1637 0 0.000402524 11.1829 0 -0.00272292 11.1932
0 -0.00572161 11.1732 0 -0.00886013 11.0559 0 -0.0126162 10.6901 0
-0.0145235 10.0011 0 -0.0109937 9.05002 0 -0.00618478 7.52224 0 0.0057231
11.0017 0 0.0127606 11.0093 0 0.0161701 11.0201 0 0.0178726 11.0321
0 0.017524 11.0461 0 0.0156304 11.0618 0 0.0129435 11.0792 0
0.00978931 11.0982 0 0.00616163 11.1189 0 0.00230426 11.1415 0 -0.00158296
11.1661 0 -0.00534325 11.1918 0 -0.00883392 11.2159 0 -0.0119456 11.2304
0 -0.0146523 11.2122 0 -0.0171386 11.0914 0 -0.0195836 10.7249 0
-0.019425 10.0581 0 -0.013679 9.13348 0 -0.00730049 7.61928 0 0.00478966
11.0014 0 0.011239 11.0078 0 0.0143141 11.0174 0 0.0156923 11.0285
0 0.0150493 11.0415 0 0.012755 11.0563 0 0.00937079 11.073 0
0.00547603 11.0923 0 0.0013324 11.1141 0 -0.00313908 11.1382 0 -0.00768503
11.1651 0 -0.0120963 11.1947 0 -0.016176 11.226 0 -0.019733 11.2557
0 -0.0226221 11.2755 0 -0.0247821 11.2602 0 -0.0263038 11.1385 0
-0.0270935 10.7761 0 -0.0246613 10.1324 0 -0.0165295 9.23214 0 -0.00846663
7.72857 0 0.00404894 11.0011 0 0.00987074 11.0066 0 0.0126228 11.0152
0 0.0136674 11.0253 0 0.012729 11.0372 0 0.0100332 11.051 0
0.00604176 11.0669 0 0.00113927 11.0856 0 -0.00407587 11.1076 0 -0.00929268
11.1331 0 -0.0146517 11.1617 0 -0.0198865 11.1938 0 -0.024749 11.2293
0 -0.0289954 11.2669 0 -0.0324025 11.3032 0 -0.0348081 11.329 0
-0.0361134 11.3181 0 -0.0363263 11.198 0 -0.0351198 10.8434 0 -0.0302124
10.2232 0 -0.01953 9.34528 0 -0.00966256 7.84936 0 0.0034808 11.001
0 0.00870387 11.0056 0 0.0110833 11.0133 0 0.0118044 11.0224 0
0.0105747 11.0333 0 0.00749167 11.0461 0 0.00290692 11.061 0 -0.0028742
11.0789 0 -0.00947293 11.1002 0 -0.0161449 11.1259 0 -0.0224956 11.1559
0 -0.0287491 11.1899 0 -0.0346 11.2282 0 -0.0397544 11.2705 0
-0.0439376 11.3153 0 -0.0469162 11.3591 0 -0.0485146 11.3918 0 -0.0486113
11.3863 0 -0.0471459 11.2702 0 -0.0436207 10.9265 0 -0.0360387 10.3296
0 -0.0226389 9.4718 0 -0.0108579 7.98047 0 0.00304036 11.0008 0
0.00774866 11.0048 0 0.00973875 11.0117 0 0.0101023 11.0199 0 0.00859576
11.0298 0 0.00514923 11.0415 0 1.22572e-06 11.0554 0 -0.00662556 11.0722
0 -0.0144342 11.0927 0 -0.0229421 11.1176 0 -0.0311941 11.1479 0
-0.0386994 11.1834 0 -0.0457785 11.2238 0 -0.0520804 11.2691 0 -0.0572806
11.3191 0 -0.0610971 11.372 0 -0.0632949 11.4238 0 -0.0637057 11.4643
0 -0.0622048 11.4653 0 -0.0586823 11.3551 0 -0.0525311 11.0244 0
-0.0420687 10.4501 0 -0.0258071 9.61045 0 -0.0120392 8.12063 0 0.00269271
11.0007 0 0.00696325 11.0043 0 0.0086209 11.0105 0 0.0086227 11.0178
0 0.00679709 11.0266 0 0.00301955 11.0372 0 -0.00264878 11.05 0
-0.0100715 11.0655 0 -0.0190381 11.0849 0 -0.0291562 11.1089 0 -0.0397857
11.1383 0 -0.0497038 11.1742 0 -0.0583056 11.2163 0 -0.0660422 11.264
0 -0.0725324 11.3173 0 -0.0774462 11.3757 0 -0.0805085 11.4374 0
-0.0815073 11.498 0 -0.0803004 11.5467 0 -0.0767813 11.5551 0 -0.0708161
11.4525 0 -0.0617433 11.1363 0 -0.0482443 10.5836 0 -0.028997 9.75987
0 -0.0131951 8.26853 0 0.002414 11.0006 0 0.00631483 11.0038 0
0.00769744 11.0095 0 0.00740278 11.016 0 0.00524987 11.0238 0 0.00111174
11.0333 0 -0.00502343 11.0448 0 -0.0131771 11.0591 0 -0.0232311 11.0771
0 -0.0348886 11.0997 0 -0.0476083 11.1281 0 -0.0605423 11.163 0
-0.0721372 11.2055 0 -0.0816712 11.2552 0 -0.0897883 11.3112 0 -0.0961045
11.3734 0 -0.100303 11.441 0 -0.102144 11.5119 0 -0.101462 11.5817
0 -0.0981695 11.6392 0 -0.0922098 11.6556 0 -0.0834251 11.5619 0
-0.0711506 11.2609 0 -0.0544932 10.7286 0 -0.0321727 9.91861 0 -0.0143052
8.42276 0 0.00218749 11.0006 0 0.00577531 11.0035 0 0.00692862 11.0087
0 0.00640227 11.0146 0 0.00399136 11.0215 0 -0.000496894 11.0298 0
-0.00710873 11.04 0 -0.0159156 11.0529 0 -0.0269685 11.0693 0 -0.0400731
11.0904 0 -0.0547933 11.1173 0 -0.0703851 11.1509 0 -0.0857392 11.1924
0 -0.0989152 11.2427 0 -0.109096 11.301 0 -0.1172 11.3662 0
-0.122868 11.438 0 -0.125827 11.5153 0 -0.125904 11.596 0 -0.123018
11.6752 0 -0.117153 11.7416 0 -0.108311 11.7665 0 -0.0963689 11.6825
0 -0.0806656 11.397 0 -0.0607359 10.8837 0 -0.0352956 10.0851 0
-0.0153582 8.58188 0 0.00200125 11.0005 0 0.00532349 11.0032 0 0.00628479
11.008 0 0.00557792 11.0134 0 0.00297556 11.0196 0 -0.00177353 11.0268
0 -0.00881942 11.0356 0 -0.0182674 11.0469 0 -0.0302148 11.0617 0
-0.0446525 11.081 0 -0.0612584 11.106 0 -0.0794007 11.138 0 -0.0980752
11.1781 0 -0.115863 11.2271 0 -0.130396 11.2863 0 -0.140804 11.3543
0 -0.148376 11.4295 0 -0.152811 11.5114 0 -0.153922 11.5989 0
-0.151637 11.6896 0 -0.145979 11.7783 0 -0.13704 11.8537 0 -0.124899
11.8871 0 -0.109484 11.8132 0 -0.0901749 11.543 0 -0.0668981 11.0472
0 -0.0383329 10.2578 0 -0.0163559 8.74448 0 0.00184655 11.0004 0
0.00494276 11.0029 0 0.00574247 11.0074 0 0.00489604 11.0124 0 0.00215456
11.018 0 -0.00277421 11.0243 0 -0.0101299 11.0318 0 -0.0201363 11.0414
0 -0.0329428 11.0542 0 -0.0485802 11.0716 0 -0.0669308 11.0946 0
-0.0874865 11.1245 0 -0.109359 11.1626 0 -0.13123 11.2102 0 -0.151338
11.268 0 -0.166861 11.337 0 -0.176937 11.4156 0 -0.183324 11.5015
0 -0.185833 11.5941 0 -0.184404 11.692 0 -0.179108 11.7926 0
-0.170104 11.8908 0 -0.157595 11.9749 0 -0.141776 12.0167 0 -0.122619
11.953 0 -0.0995672 11.6975 0 -0.0729175 11.2176 0 -0.0412642 10.4352
0 -0.0172141 8.90946 0 0.0017169 11.0004 0 0.00462005 11.0027 0
0.00528301 11.007 0 0.0043297 11.0115 0 0.00148983 11.0166 0 -0.00355565
11.0221 0 -0.0111124 11.0285 0 -0.0215073 11.0365 0 -0.0350416 11.0473
0 -0.0518195 11.0623 0 -0.0717494 11.083 0 -0.0945496 11.1104 0
-0.119463 11.1462 0 -0.145284 11.1917 0 -0.170338 11.2479 0 -0.192511
11.3156 0 -0.208496 11.3955 0 -0.21751 11.4855 0 -0.221928 11.5827
0 -0.221726 11.6862 0 -0.217016 11.7945 0 -0.20804 11.9049 0
-0.195116 12.0121 0 -0.17858 12.1045 0 -0.158738 12.1545 0 -0.13563
12.1006 0 -0.108743 11.859 0 -0.078751 11.3931 0 -0.0440212 10.6159
0 -0.0185273 9.07402 0 0.00160743 11.0004 0 0.00434496 11.0026 0
0.00489138 11.0066 0 0.00385741 11.0108 0 0.000950439 11.0154 0 -0.0041636
11.0203 0 -0.0118379 11.0257 0 -0.022476 11.0323 0 -0.0365097 11.0411
0 -0.0542385 11.0535 0 -0.075665 11.0714 0 -0.100511 11.0961 0
-0.128269 11.1291 0 -0.157866 11.1719 0 -0.187732 11.2259 0 -0.215814
11.2919 0 -0.239609 11.3706 0 -0.255342 11.4623 0 -0.26242 11.5643
0 -0.26398 11.6731 0 -0.260213 11.7876 0 -0.251447 11.9062 0
-0.238122 12.0259 0 -0.220726 12.1416 0 -0.199743 12.2417 0 -0.175589
12.2992 0 -0.148376 12.2546 0 -0.117631 12.0258 0 -0.0843276 11.5724
0 -0.0472358 10.7977 0 -0.0197561 9.26791 0 0.00151432 11.0003 0
0.00410929 11.0024 0 0.00455776 11.0063 0 0.00346182 11.0102 0 0.000511707
11.0144 0 -0.00463465 11.0187 0 -0.0123635 11.0233 0 -0.0231337 11.0287
0 -0.0374743 11.0358 0 -0.0558522 11.0457 0 -0.0785173 11.0603 0
-0.105304 11.0817 0 -0.135675 11.1115 0 -0.168828 11.1511 0 -0.203322
11.2021 0 -0.237185 11.2658 0 -0.267936 11.3428 0 -0.292724 11.4334
0 -0.307321 11.5378 0 -0.311457 11.6522 0 -0.309177 11.7728 0
-0.300944 11.8982 0 -0.28733 12.0266 0 -0.269 12.1551 0 -0.246628
12.2785 0 -0.220833 12.3855 0 -0.192142 12.4498 0 -0.160747 12.4136
0 -0.126139 12.1967 0 -0.0900314 11.7535 0 -0.0500659 11.001 0
-0.0200796 9.46717 0 0.00143456 11.0003 0 0.00390655 11.0023 0 0.00427029
11.006 0 0.0031289 11.0097 0 0.000153906 11.0135 0 -0.00499797 11.0173
0 -0.0127346 11.0211 0 -0.0235534 11.0255 0 -0.0380537 11.031 0
-0.0568286 11.0388 0 -0.0803404 11.0504 0 -0.108732 11.0678 0 -0.141594
11.0936 0 -0.178039 11.1296 0 -0.216923 11.177 0 -0.256382 11.2375
0 -0.293985 11.3121 0 -0.326852 11.4012 0 -0.351812 11.5047 0
-0.364225 11.6223 0 -0.364289 11.7495 0 -0.357114 11.8817 0 -0.343486
12.0175 0 -0.324251 12.1552 0 -0.30031 12.2917 0 -0.272515 12.422
0 -0.241614 12.5349 0 -0.208241 12.605 0 -0.172621 12.5765 0
-0.13447 12.3696 0 -0.0954533 11.9561 0 -0.0519114 11.2239 0 -0.0204827
9.66201 0 0.0013657 11.0003 0 0.00373155 11.0022 0 0.00402179 11.0057
0 0.00284895 11.0092 0 -0.000138773 11.0127 0 -0.00527673 11.0161 0
-0.0129873 11.0193 0 -0.0237932 11.0227 0 -0.038343 11.0269 0 -0.0573217
11.0327 0 -0.0813536 11.0416 0 -0.110849 11.0553 0 -0.145776 11.0763
0 -0.185383 11.1075 0 -0.228366 11.1509 0 -0.273174 11.2074 0
-0.317459 11.2786 0 -0.358343 11.3653 0 -0.392564 11.4676 0 -0.416676
11.5847 0 -0.425697 11.7159 0 -0.420462 11.8559 0 -0.407304 11.9994
0 -0.387364 12.1452 0 -0.361779 12.2912 0 -0.331682 12.4348 0
-0.298094 12.5709 0 -0.261878 12.6887 0 -0.223727 12.7637 0 -0.184064
12.7415 0 -0.142822 12.5634 0 -0.100275 12.179 0 -0.0539325 11.443
0 -0.0209144 9.85035 0 0.0013064 11.0003 0 0.00357974 11.0021 0
0.00380728 11.0055 0 0.00261169 11.0088 0 -0.000378794 11.0121 0 -0.00548929
11.015 0 -0.01315 11.0177 0 -0.0238991 11.0203 0 -0.0384173 11.0233
0 -0.0574548 11.0274 0 -0.0817562 11.0338 0 -0.111938 11.0441 0
-0.1483 11.0605 0 -0.190547 11.0861 0 -0.237501 11.1239 0 -0.28735
11.1758 0 -0.338075 11.2429 0 -0.386839 11.3261 0 -0.430316 11.4262
0 -0.464898 11.5425 0 -0.486953 11.6737 0 -0.491248 11.8187 0
-0.479433 11.9712 0 -0.459201 12.1256 0 -0.432072 12.2804 0 -0.399475
12.4339 0 -0.36276 12.5835 0 -0.323099 12.7242 0 -0.281423 12.846
0 -0.238554 12.9244 0 -0.195781 12.9266 0 -0.150749 12.7773 0
-0.104889 12.3988 0 -0.0558762 11.6556 0 -0.0212742 10.0308 0 0.00344697
11.0021 0 0.00123467 11.0003 0 0.00362042 11.0053 0 0.00240968 11.0085
0 -0.000576163 11.0115 0 -0.00565018 11.0141 0 -0.013245 11.0163 0
-0.0239067 11.0182 0 -0.0383354 11.0201 0 -0.0573254 11.0227 0 -0.0817077
11.0269 0 -0.112253 11.0341 0 -0.149522 11.0465 0 -0.193625 11.0665
0 -0.243929 11.0975 0 -0.298714 11.1431 0 -0.355566 11.2052 0
-0.411993 11.284 0 -0.464645 11.3807 0 -0.509773 11.495 0 -0.543506
11.6261 0 -0.562132 11.7718 0 -0.560277 11.9305 0 -0.540579 12.0951
0 -0.512216 12.2595 0 -0.477092 12.4224 0 -0.436909 12.5823 0
-0.393213 12.7366 0 -0.347277 12.881 0 -0.300115 13.0051 0 -0.253943
13.1048 0 -0.207243 13.131 0 -0.157971 12.9885 0 -0.109068 12.613
0 -0.0575395 11.8603 0 -0.0215434 10.2029 0 0.00345477 11.0052 0
0.00329092 11.002 0 0.00114787 11.0002 0 0.00223611 11.0082 0 -0.000738844
11.011 0 -0.00577055 11.0133 0 -0.0132896 11.0151 0 -0.0238437 11.0163
0 -0.038143 11.0173 0 -0.0570095 11.0185 0 -0.0813339 11.0208 0
-0.112001 11.0253 0 -0.149767 11.0339 0 -0.195067 11.0489 0 -0.247759
11.0734 0 -0.306758 11.1111 0 -0.369683 11.1659 0 -0.433474 11.2394
0 -0.495128 11.3316 0 -0.550804 11.4428 0 -0.596398 11.5724 0
-0.627872 11.7187 0 -0.641569 11.879 0 -0.632083 12.0511 0 -0.603222
12.227 0 -0.565742 12.4004 0 -0.52191 12.5702 0 -0.473678 12.7352
0 -0.422729 12.8933 0 -0.370424 13.0397 0 -0.319664 13.1838 0
-0.269278 13.304 0 -0.217571 13.3331 0 -0.164436 13.1948 0 -0.112654
12.8199 0 -0.0589115 12.0561 0 -0.0217145 10.3662 0 0.00208166 11.0079
0 0.00327264 11.005 0 0.00309365 11.0019 0 0.00106467 11.0002 4.29277e-19
-0.000874697 11.0106 0 -0.00585899 11.0126 0 -0.0132969 11.014 0 -0.0237316
11.0147 0 -0.0378755 11.0148 0 -0.0565661 11.0148 0 -0.0807333 11.0154
0 -0.111342 11.0175 0 -0.149297 11.0227 0 -0.19528 11.0331 0
-0.249546 11.0516 0 -0.311595 11.0815 0 -0.379776 11.1272 0 -0.450962
11.1928 0 -0.521362 11.2793 0 -0.587488 11.3861 0 -0.645053 11.513
0 -0.689689 11.6586 0 -0.717326 11.8204 0 -0.724498 11.9951 0
-0.705899 12.1799 0 -0.666658 12.3662 0 -0.619172 12.5474 0 -0.566041
12.7229 0 -0.509403 12.8919 0 -0.451039 13.052 0 -0.394749 13.2181
0 -0.339396 13.3813 0 -0.28306 13.501 0 -0.226806 13.5307 0
-0.170032 13.3943 0 -0.115669 13.0185 0 -0.0600104 12.2425 0 -0.021791
10.5204 0 -0.000998436 11.0102 0 0.00193001 11.0076 0 0.00305697 11.0047
1.87938e-18 0.00290246 11.0017 -1.35915e-18 0.000984616 11.0002 -8.71212e-19 -0.00592386 11.012 0
-0.0132765 11.013 0 -0.0235864 11.0132 0 -0.0375598 11.0126 0 -0.0560403
11.0116 0 -0.0799815 11.0106 0 -0.110403 11.0106 0 -0.148315 11.0128
0 -0.19459 11.0191 0 -0.249792 11.032 0 -0.313898 11.0548 0
-0.385948 11.0915 0 -0.463634 11.1465 0 -0.542944 11.2244 0 -0.619331
11.3255 0 -0.688875 11.4482 0 -0.746923 11.5917 0 -0.788971 11.7538
0 -0.811058 11.9312 0 -0.810069 12.1197 0 -0.780912 12.3164 0
-0.730175 12.5119 0 -0.671926 12.6996 0 -0.609026 12.8796 0 -0.543747
13.0509 0 -0.480898 13.2306 0 -0.419515 13.4153 0 -0.357172 13.5766
0 -0.295369 13.6939 0 -0.234856 13.7222 0 -0.174785 13.5862 0
-0.118157 13.2081 0 -0.0608623 12.4192 0 -0.0217854 10.6653 0 -0.00598725
11.0115 0 -0.00108146 11.0097 -3.8045e-18 0.00176205 11.0071 -1.97885e-18 0.00284717 11.0044
9.5408e-19 0.0027146 11.0016 -9.19102e-19 0.000907778 11.0002 0 -0.0132371 11.0122 0
-0.0234188 11.0119 0 -0.0372156 11.0107 0 -0.0554665 11.0088 0 -0.0791366
11.0065 0 -0.109281 11.0045 0 -0.146984 11.004 0 -0.193257 11.0066
0 -0.248905 11.0145 0 -0.314285 11.0308 0 -0.389005 11.059 0
-0.471557 11.1037 0 -0.558829 11.1697 0 -0.645835 11.2615 0 -0.727276
11.3787 0 -0.798884 11.5185 0 -0.85576 11.6793 0 -0.893406 11.8581
0 -0.908142 12.0508 0 -0.89736 12.2525 0 -0.85629 12.4598 0
-0.793083 12.6631 0 -0.723459 12.8561 0 -0.650458 13.0388 0 -0.580086
13.2298 0 -0.511494 13.4282 0 -0.441905 13.6104 0 -0.37306 13.7679
0 -0.306145 13.881 0 -0.241742 13.9065 0 -0.178754 13.7697 0
-0.120165 13.3882 0 -0.0614973 12.5859 0 -0.0217121 10.801 0 -0.0132113
11.0115 0 -0.00595524 11.0108 8.00722e-18 -0.00113062 11.0091 0 0.00160092 11.0067
2.00765e-18 0.00264446 11.0042 5.8526e-22 0.00253067 11.0015 0 0.000834138 11.0002 0
-0.023238 11.0108 0 -0.0368556 11.0091 0 -0.0548695 11.0063 0 -0.0782427
11.0027 0 -0.10805 10.9991 0 -0.145427 10.9962 0 -0.191485 10.9955
0 -0.247209 10.9989 0 -0.313255 11.0092 0 -0.389693 11.0297 0
-0.475683 11.0646 0 -0.56902 11.1189 0 -0.665684 11.1975 0 -0.759642
11.3048 0 -0.844876 11.4395 0 -0.916907 11.5974 0 -0.97073 11.7761
0 -1.00203 11.9715 0 -1.00758 12.1789 0 -0.985418 12.3927 0
-0.931208 12.6094 0 -0.854723 12.8191 0 -0.773273 13.0155 0 -0.694441
13.2184 0 -0.617503 13.4282 0 -0.539259 13.6239 0 -0.461943 13.8017
0 -0.387029 13.9537 0 -0.315412 14.0613 0 -0.247541 14.083 0
-0.182004 13.9444 0 -0.121742 13.5588 0 -0.0619457 12.7427 0 -0.0215837
10.9278 0 -0.0230917 11.0098 0 -0.0130133 11.0106 5.02308e-22 -0.00580454 11.01
0 -0.00117768 11.0085 -2.11273e-18 0.00144871 11.0063 4.18899e-22 0.00244902 11.004 0
0.00235071 11.0014 0 0.000763684 11.0001 0 -0.0364895 11.0076 0 -0.0542644
11.004 0 -0.077331 10.9995 0 -0.106767 10.9943 0 -0.143739 10.9893
0 -0.189431 10.9857 0 -0.244959 10.9851 0 -0.311209 10.9899 0
-0.388618 11.0034 0 -0.476899 11.0293 0 -0.574619 11.0723 0 -0.678772
11.1377 0 -0.784329 11.2307 0 -0.884154 11.3552 0 -0.971596 11.5086
0 -1.04214 11.6854 0 -1.09085 11.8821 0 -1.11378 12.0939 0
-1.10832 12.315 0 -1.0733 12.5396 0 -1.00488 12.7642 0 -0.914486
12.9784 0 -0.826319 13.1956 0 -0.739909 13.4177 0 -0.65159 13.6249
0 -0.564168 13.8159 0 -0.479618 13.9876 0 -0.399115 14.1328 0
-0.323267 14.2342 0 -0.252346 14.2512 0 -0.184606 14.1099 0 -0.122941
13.7195 0 -0.0622338 12.8898 0 -0.0214115 11.046 0 -0.0361854 11.0063
0 -0.0226666 11.0087 -4.42822e-18 -0.0125684 11.0096 0 -0.00565853 11.0093 0
-0.00121146 11.008 6.42684e-18 0.00130533 11.006 0 0.00226068 11.0037 0 0.00217487
11.0013 1.9152e-18 0.000696422 11.0001 0 -0.0536613 11.0021 0 -0.0764199 10.9966
0 -0.105471 10.9901 0 -0.141992 10.9832 0 -0.187214 10.9769 0
-0.242351 10.9728 0 -0.308462 10.9728 0 -0.386272 10.9798 0 -0.475937
10.9974 0 -0.576676 11.03 0 -0.68636 11.0828 0 -0.80107 11.1611
0 -0.914683 11.2701 0 -1.01894 11.4133 0 -1.10668 11.5866 0
-1.17359 11.7828 0 -1.21499 11.9974 0 -1.22752 12.2247 0 -1.20932
12.4585 0 -1.16011 12.6926 0 -1.07657 12.923 0 -0.978329 13.1591
0 -0.881341 13.3961 0 -0.781469 13.6158 0 -0.682249 13.8181 0
-0.586212 14.0026 0 -0.494981 14.167 0 -0.409428 14.3047 0 -0.329827
14.3991 0 -0.256253 14.4108 0 -0.186635 14.2662 0 -0.12381 13.8707
0 -0.0623869 13.0273 0 -0.0212057 11.1558 0 -0.0531569 11.0004 0
-0.0354578 11.0048 0 -0.0218099 11.0074 -4.83935e-18 -0.0121401 11.0086 -4.6703e-18 -0.00549316
11.0085 -9.00864e-18 -0.00123187 11.0074 0 0.00117086 11.0056 -4.18386e-18 0.00207966 11.0035
-4.02968e-18 0.00200313 11.0013 1.93949e-18 0.000632213 11.0001 0 -0.0755202 10.994 0
-0.104185 10.9864 0 -0.140236 10.9778 0 -0.184926 10.9692 0 -0.239538
10.9618 0 -0.305261 10.9575 0 -0.38304 10.9587 0 -0.473388 10.9688
0 -0.576056 10.9919 0 -0.689667 11.0327 0 -0.811281 11.0969 0