# vtk DataFile Version 2.0
sampleSurface
ASCII
DATASET POLYDATA
POINTS 15978 float
-4.26165e-19 0.000133477 0 -4.18079e-19 -0.000798814 0 -4.33681e-19 0.001 0 -4.09379e-19 -0.00180187
0 -0.00181681 0.000361473 0 0.00181681 0.000361473 0 -0.00181396 -0.000575145 0
0.00181396 -0.000575145 0 -0.00181945 0.00123202 0 0.00181945 0.00123202 0 -0.00181089
-0.00158285 0 0.00181089 -0.00158285 0 -4.00018e-19 -0.00288105 0 -0.00180759 -0.00266704
0 0.00180759 -0.00266704 0 -0.00351565 8.15481e-05 0 0.00351565 8.15481e-05 0
-0.00351186 -0.000939823 0 0.00351186 -0.000939823 0 -0.00351918 0.00103087 0 0.00351918
0.00103087 0 -0.00352245 0.00191322 0 0.00352245 0.00191322 0 -3.89947e-19 -0.00404214
0 -0.00350777 -0.00203871 0 0.00350777 -0.00203871 0 -0.00180405 -0.00383352 0
0.00180405 -0.00383352 0 -0.00350338 -0.00322101 0 0.00350338 -0.00322101 0 -0.005
8.60602e-05 0 0.005 8.60602e-05 0 -0.005 -0.00103629 0 0.005 -0.00103629
0 -0.005 0.00112923 0 0.005 0.00112923 0 -3.79112e-19 -0.00529135 0
-0.00180023 -0.00508853 0 0.00180023 -0.00508853 0 -0.005 0.00209882 0 0.005
0.00209882 0 -0.005 -0.00224382 0 0.005 -0.00224382 0 -0.00349866 -0.00449304
0 0.00349866 -0.00449304 0 -0.005 0.003 0 0.005 0.003 0
-0.005 -0.003543 0 0.005 -0.003543 0 -0.00637208 2.82617e-05 0 0.00639053
4.25732e-05 0 -0.00637208 0.00114892 0 -0.00637208 -0.00117745 0 0.00639053 -0.00116311
0 0.00639053 0.00116321 0 -3.67455e-19 -0.00663538 0 -0.00179612 -0.00643879 0
0.00179612 -0.00643879 0 -0.00637208 0.00219052 0 0.00639053 0.00220479 0 -0.00349357
-0.00586162 0 0.00349357 -0.00586162 0 -0.00637208 -0.00247467 0 0.00639053 -0.00246031
0 -0.005 -0.00494079 0 0.005 -0.00494079 0 -0.00637208 0.00315864 0
0.00639053 0.00317289 0 -0.00637208 -0.00387036 0 0.00639053 -0.00385597 0 -0.00637208
0.00405846 0 0.00639053 0.00407269 0 -0.00778421 -7.99569e-05 0 0.00781802 -5.3679e-05
0 -0.00778421 0.00112388 0 0.00781802 0.00115011 0 -0.00778421 -0.00137517 0
0.00781802 -0.00134884 0 -3.54912e-19 -0.00808142 0 -0.0017917 -0.00789154 0 0.0017917
-0.00789154 0 -0.00778421 0.0022428 0 -0.0034881 -0.00733407 0 0.0034881 -0.00733407
0 0.00781802 0.00226899 0 -0.005 -0.00644467 0 0.005 -0.00644467 0
-0.00778421 -0.00276868 0 0.00781802 -0.0027423 0 -0.00637208 -0.00537197 0 0.00639053
-0.00535755 0 -0.00778421 0.00328278 0 0.00781802 0.00330893 0 -0.00778421 0.00424939
0 -0.00778421 -0.00426796 0 0.00781802 -0.00424152 0 0.00781802 0.00427551 0
-0.00923755 -0.000243565 0 0.00928347 -0.000207818 0 -0.00923755 0.00104957 0 -0.00778421
0.00514782 0 0.00928347 0.00108525 0 0.00781802 0.0051739 0 -0.00923755 -0.00163485
0 0.00928347 -0.00159903 0 -0.00637208 -0.00698755 0 0.00639053 -0.0069731 0
-0.005 -0.0080627 0 0.005 -0.0080627 0 -0.00923755 0.00225148 0 0.00928347
0.0022871 0 -0.00348222 -0.00891827 0 0.00348222 -0.00891827 0 -0.00178695 -0.00945455
0 0.00178695 -0.00945455 0 -3.41418e-19 -0.00963721 0 -0.00923755 -0.00313172 0
-0.00778421 -0.00588103 0 0.00781802 -0.00585453 0 0.00928347 -0.00309583 0 -0.00923755
0.0033686 0 0.00928347 0.00340416 0 -0.00923755 0.00440692 0 0.00928347 0.00444243
0 -0.00923755 -0.00474221 0 0.00928347 -0.00470623 0 -0.00923755 0.00537198 0
-0.0107333 -0.000467921 0 0.00928347 0.00540745 0 -0.0107333 0.000921062 0 0.0107879
-0.000425364 0 0.00639053 -0.00871127 0 -0.00637208 -0.00872575 0 0.0107879 0.000963535
0 -0.00778421 -0.00761653 0 0.00781802 -0.00758997 0 -0.0107333 -0.00196233 0
0.0107879 -0.00191968 0 -0.0107333 0.00221206 0 -0.005 -0.00980352 0 0.005
-0.00980352 0 0.0107879 0.00225445 0 -0.00923755 0.00626897 0 -0.00347589 -0.0106227
0 0.00347589 -0.0106227 0 0.00928347 0.00630439 0 -0.0107333 0.00341198 0
-0.00178183 -0.0111362 0 0.00178183 -0.0111362 0 -0.00923755 -0.00647493 0 0.00928347
-0.00643887 0 -3.26899e-19 -0.0113111 0 -0.0107333 -0.00357015 0 0.0107879 0.00345431
0 0.0107879 -0.00352741 0 -0.0107333 0.00452726 0 0.0107879 0.00456952 0
-0.0107333 -0.00530001 0 0.0107879 -0.00525717 0 -0.0107333 0.00556386 0 0.0107879
0.00560606 0 -0.000743369 0.0122055 0 0.000743369 0.0122055 0 -0.00778421 -0.00948375
0 0.00781802 -0.00945713 0 -0.0122727 0.000733061 0 -0.0122727 -0.000758799 0
0.0123323 -0.000712262 0 0.0123323 0.0007795 0 0.00639053 -0.0105814 0 -0.00637208
-0.0105959 0 -0.00923755 -0.00833916 0 -0.0122727 0.00211968 0 0.00928347 -0.00830301
0 -0.0122727 -0.00236389 0 0.0123323 0.00216603 0 0.0123323 -0.00231725 0
-0.0107333 0.00652734 0 0.0107879 0.00656947 0 -0.005 -0.0116765 0 0.005
-0.0116765 0 -0.0122727 0.00340848 0 0.0123323 0.00345474 0 -0.000741126 0.0128136
0 0.000741126 0.0128136 0 -0.0107333 -0.00716117 0 0.0107879 -0.00711821 0
-0.00346908 -0.0124565 0 0.00346908 -0.0124565 0 -0.0122727 -0.00409081 0 0.0123323
-0.00404405 0 -0.0107333 0.00742284 0 -0.00177633 -0.0129455 0 0.00177633 -0.0129455
0 -0.0122727 0.00460636 0 -3.11279e-19 -0.013112 0 0.0107879 0.00746492 0
-0.002 0.013 0 0.002 0.013 0 0.0123323 0.00465255 0 -0.0007387
0.0134712 0 0.0007387 0.0134712 0 -0.0122727 0.00571974 0 0.0123323 0.00576585
0 -0.0122727 -0.00594879 0 0.0123323 -0.00590191 0 -0.002 0.0135849 0
0.002 0.0135849 0 -0.0138571 0.000479853 0 -0.00923755 -0.0103449 0 0.00928347
-0.0103086 0 0.00781802 -0.011466 0 -0.00778421 -0.0114927 0 -0.0138571 -0.00112242
0 0.0139177 0.000527252 0 0.0139177 -0.00107491 0 -0.0138571 0.0019691 0
-0.0122727 0.00675458 0 0.0139177 0.00201639 0 0.0123323 0.00680062 0 -0.0107333
-0.00916358 0 0.00639053 -0.0125934 0 0.0107879 -0.0091205 0 -0.00637208 -0.012608
0 -0.0138571 -0.0028463 0 0.0139177 -0.00279868 0 -0.000736077 0.0141824 0
0.000736077 0.0141824 0 -0.00319452 0.0138829 0 0.00320133 0.0138879 0 -0.0138571
0.00335328 0 0.0139177 0.00340049 0 -0.002 0.0142174 0 0.002 0.0142174
0 -0.0122727 0.00771641 0 0.0123323 0.00776239 0 -0.005 -0.0136916 0
0.005 -0.0136916 0 -0.0138571 0.00463982 0 -0.0122727 -0.0079478 0 -0.0138571
-0.00470103 0 0.0123323 -0.00790078 0 0.0139177 -0.00465328 0 0.0139177 0.00468694
0 -0.00319452 0.0144678 0 0.00320133 0.0144728 0 -0.00346175 -0.0144295 0
0.00346175 -0.0144295 0 -0.00073324 0.0149515 0 0.00073324 0.0149515 0 -0.0122727
0.00861039 0 -0.00177041 -0.0148921 0 0.00177041 -0.0148921 0 -0.002 0.0149014
0 0.002 0.0149014 0 -0.0138571 0.0058356 0 -2.94473e-19 -0.0150496 0
0.0123323 0.00865631 0 0.0139177 0.00588264 0 -0.0138571 -0.00669653 0 0.0139177
-0.00664864 0 -0.00319452 0.0151003 0 0.00320133 0.0151053 0 -0.0154877 0.000155282
0 -0.0138571 0.00694702 0 -0.00451419 0.0148583 0 0.0045263 0.0148673 0
0.00928347 -0.0124665 0 -0.00923755 -0.0125028 0 0.0155453 0.000200444 0 -0.0154877
-0.00156548 0 0.0139177 0.00699399 0 -0.0154877 0.00175466 0 -0.0107333 -0.011318
0 0.0107879 -0.0112748 0 0.0155453 -0.00152021 0 0.0155453 0.00179972 0
0.00781802 -0.0136273 0 -0.00778421 -0.0136541 0 -0.002 0.0156411 0 0.002
0.0156411 0 -0.000730172 0.0157833 0 0.000730172 0.0157833 0 -0.0154877 0.0032412
0 -0.0154877 -0.00341685 0 0.0155453 0.00328617 0 -0.0122727 -0.0100985 0
0.0155453 -0.00337146 0 0.0123323 -0.0100514 0 -0.0138571 0.00798004 0 0.0139177
0.00802694 0 0.00639053 -0.0147581 0 -0.00637208 -0.0147727 0 -0.00451419 0.0154432
0 0.0045263 0.0154521 0 -0.00319452 0.0157843 0 0.00320133 0.0157893 0
-0.0154877 0.00462288 0 0.0155453 0.00466776 0 -0.0154877 -0.00540874 0 -0.0138571
-0.00884348 0 0.0155453 -0.00536322 0 0.0139177 -0.00879545 0 -0.0138571 0.00894019
0 -0.002 0.0164411 0 0.002 0.0164411 0 0.0139177 0.00898702 0
-0.0154877 0.00590709 0 -0.005 -0.0158596 0 0.005 -0.0158596 0 0.0155453
0.00595189 0 -0.00451419 0.0160757 0 -0.000726854 0.0166828 0 0.000726854 0.0166828
0 0.0045263 0.0160846 0 -0.00319452 0.016524 0 0.00320133 0.016529 0
-0.00345386 -0.0165523 0 0.00345386 -0.0165523 0 -0.0138571 0.0098326 0 -0.00597213
0.0159359 0 0.00598764 0.0159474 0 -0.0154877 0.00710071 0 0.0139177 0.00987937
0 -0.00176404 -0.0169864 0 0.00176404 -0.0169864 0 0.0155453 0.00714543 0
-2.76391e-19 -0.0171343 0 -0.0171658 -0.000247278 0 0.0172162 -0.000207752 0 -0.0171658
0.00147028 0 -0.0154877 -0.0075518 0 0.0155453 -0.00750615 0 0.0172162 0.00150971
0 -0.0171658 -0.00209519 0 0.0172162 -0.00205556 0 0.0107879 -0.0135925 0
-0.0107333 -0.0136359 0 -0.00451419 0.0167597 0 0.0045263 0.0167686 0 -0.002
0.0173062 0 0.002 0.0173062 0 -0.0171658 0.00306667 0 -0.0122727 -0.0124125
0 0.00928347 -0.0147881 0 0.0123323 -0.0123652 0 -0.00923755 -0.0148246 0
0.0172162 0.00310601 0 -0.0154877 0.00821012 0 -0.00597213 0.0165208 0 0.00598764
0.0165323 0 0.0155453 0.00825477 0 -0.00319452 0.017324 0 0.00320133 0.017329
0 -0.0171658 -0.00408336 0 -0.000723266 0.0176555 0 0.000723266 0.0176555 0
0.0172162 -0.00404362 0 -0.0171658 0.00455044 0 0.00781802 -0.0159527 0 -0.00778421
-0.0159796 0 -0.0138571 -0.0111534 0 0.0139177 -0.0111052 0 0.0172162 0.0045897
0 -0.0154877 0.00924127 0 -0.00451419 0.0174994 0 0.0045263 0.0175084 0
0.0155453 0.00928585 0 -0.0171658 0.00592954 0 -0.00597213 0.0171533 0 0.00598764
0.0171648 0 0.0172162 0.00596872 0 0.00639053 -0.0170872 0 -0.00637208 -0.0171018
0 -0.0171658 -0.00622243 0 0.0172162 -0.00618257 0 -0.002 0.0182418 0
0.002 0.0182418 0 -0.0154877 -0.00985753 0 0.0155453 -0.00981172 0 -0.00319452
0.0181891 0 0.00320133 0.0181941 0 -0.0154877 0.0101997 0 0.0155453 0.0102442
0 -0.0171658 0.00721136 0 0.0172162 0.00725047 0 -0.000719385 0.0187075 0
0.000719385 0.0187075 0 -0.00758282 0.0171264 0 0.00759938 0.0171387 0 -0.00597213
0.0178373 0 0.00598764 0.0178488 0 -0.00451419 0.0182994 0 0.0045263 0.0183083
0 -0.005 -0.0181922 0 0.005 -0.0181922 0 -0.018893 -0.00073496 0
-0.018893 0.0011094 0 0.0189314 -0.000704684 0 0.0189314 0.0011396 0 -0.0154877
0.0110905 0 -0.018893 -0.0027193 0 -0.018893 0.00282365 0 -0.0171658 0.00840275
0 0.0189314 -0.00268894 0 0.0155453 0.0111349 0 0.0189314 0.00285377 0
-0.00344538 -0.0188361 0 0.00344538 -0.0188361 0 -0.0171658 -0.00852385 0 0.0172162
0.00844179 0 0.0172162 -0.00848386 0 -0.00758282 0.0177113 0 0.00759938 0.0177235
0 -0.0122727 -0.0149021 0 0.0123323 -0.0148546 0 -0.00175719 -0.0192397 0
[...]
CELL_DATA 15677
FIELD attributes 1
U 3 15677 float
-0.30487 10.2652 0 0.190475 10.9192 0 -0.101143 9.44667 0 0.0315567 10.9901
0 0.118845 10.7323 0 -0.0119271 8.75836 0 0.0455278 11.0075 0
0.0144842 10.9815 0 0.0577132 10.4719 0 0.0115305 8.22934 0 0.046695
11.0122 0 0.0433906 11.0311 0 0.0260931 10.9286 0 0.0319079 10.1908
0 0.0113234 7.85613 0 0.0440121 11.0135 0 0.0424061 11.0439 0
0.0428083 11.0209 0 0.0332382 10.8603 0 0.0213714 9.90293 0 0.00644166
7.61195 0 0.0413771 11.0136 0 0.0404474 11.0462 0 0.0402099 11.0448
0 0.0398954 11.0049 0 0.0328246 10.7692 0 0.0159529 9.63761 0
0.00250541 7.45877 0 0.0386365 11.0131 0 0.0389905 11.0453 0 0.0393857
11.0533 0 0.0385053 11.0445 0 0.0358529 10.9826 0 0.0288602 10.6571
0 0.0121635 9.41247 0 0.00056324 7.36226 0 0.0356112 11.0123 0
0.037375 11.0435 0 0.0387173 11.056 0 0.0384537 11.0587 0 0.0360561
11.0421 0 0.0318454 10.9528 0 0.0240819 10.5327 0 0.0090228 9.23749
0 1.67026e-05 7.30013 0 0.0323296 11.0113 0 0.0354652 11.0411 0
0.0376285 11.0557 0 0.0378938 11.064 0 0.0361257 11.0634 0 0.0329227
11.0364 0 0.0284251 10.9174 0 0.0194917 10.3981 0 0.00646124 9.10673
0 -0.000237174 7.25756 0 0.0288538 11.0101 0 0.0333344 11.0382 0
0.0362315 11.054 0 0.036949 11.0652 0 0.0355678 11.0717 0 0.0329713
11.0663 0 0.0298275 11.0289 0 0.02542 10.8759 0 0.0154659 10.2694
0 0.00440702 9.01188 0 -0.000467865 7.23308 0 0.0252615 11.0089 0
0.0310054 11.0348 0 0.0345751 11.0514 0 0.0357317 11.0644 0 0.0346596
11.0746 0 0.0324197 11.0785 0 0.0297851 11.0688 0 0.0268401 11.0213
0 0.022214 10.8306 0 0.0118445 10.1594 0 0.00266633 8.94596 0
-0.000671762 7.22154 0 0.0215479 11.0077 0 0.0284838 11.0312 0 0.0326516
11.0481 0 0.0342494 11.0623 0 0.0334627 11.0747 0 0.0314759 11.0833
0 0.0291262 11.0853 0 0.0266392 11.0725 0 0.023553 11.0144 0
0.0185187 10.7846 0 0.00844971 10.0706 0 0.00110048 8.90392 0 -0.00108763
7.22355 0 0.0178419 11.0065 0 0.0258753 11.0273 0 0.0304469 11.0442
0 0.0324861 11.0592 0 0.0319809 11.0731 0 0.0301942 11.0844 0
0.0279953 11.0924 0 0.0257194 11.0938 0 0.023154 11.0784 0 0.0198666
11.009 0 0.0143981 10.7411 0 0.00514089 10.0054 0 -0.00054272 8.88296
0 -0.00170834 7.23886 0 0.0146451 11.0053 0 0.0231903 11.0233 0
0.0279884 11.0398 0 0.0304242 11.0554 0 0.0302055 11.0703 0 0.0285906
11.0835 0 0.0264632 11.0948 0 0.0242293 11.1033 0 0.0218275 11.105
0 0.0191316 11.0875 0 0.0156759 11.0063 0 0.00992199 10.7052 0
0.00166674 9.96285 0 -0.00221369 8.88107 0 -0.00237547 7.26782 0 0.012065
11.0043 0 0.0206459 11.0196 0 0.0253112 11.0351 0 0.0280503 11.0508
0 0.0281202 11.0666 0 0.0266603 11.0811 0 0.0245554 11.0946 0
0.0222609 11.107 0 0.0198203 11.117 0 0.0172288 11.1196 0 0.0143873
11.1004 0 0.0107774 11.0078 0 0.00503393 10.6801 0 -0.00191478 9.94215
0 -0.00410368 8.89751 0 -0.00320203 7.31057 0 0.00991058 11.0034 0
0.0183808 11.0164 0 0.0227114 11.0306 0 0.0253695 11.0457 0 0.0257052
11.062 0 0.0243864 11.0776 0 0.0222694 11.0926 0 0.0198432 11.1075
0 0.0172396 11.122 0 0.0145281 11.1342 0 0.011734 11.1386 0
0.00873594 11.1183 0 0.00507852 11.0154 0 -0.000329449 10.6683 0 -0.0057801
9.9422 0 -0.00619297 8.93125 0 -0.00411912 7.36731 0 0.00824171 11.0027
0 0.0163591 11.0136 0 0.0203619 11.0266 0 0.0226921 11.0407 0
0.0229499 11.0566 0 0.0217479 11.0731 0 0.0195892 11.0893 0 0.0169738
11.1059 0 0.0141129 11.1232 0 0.0111347 11.1406 0 0.00813833 11.1559
0 0.00514135 11.1628 0 0.00206524 11.1422 0 -0.00145611 11.0309 0
-0.00619694 10.6712 0 -0.0099696 9.96206 0 -0.00849336 8.98224 0 -0.00511695
7.43782 0 0.0068575 11.0021 0 0.0144559 11.0112 0 0.0182003 11.0231
0 0.0202192 11.0362 0 0.0201575 11.0511 0 0.0187299 11.0675 0
0.0164953 11.0848 0 0.0136381 11.1027 0 0.0104351 11.1219 0 0.00707259
11.1424 0 0.00370089 11.1635 0 0.000421575 11.1828 0 -0.00270585 11.1931
0 -0.00570674 11.173 0 -0.00884761 11.0557 0 -0.0126063 10.6898 0
-0.0145163 10.0008 0 -0.0109895 9.04968 0 -0.00618283 7.52192 0 0.00572083
11.0017 0 0.0127689 11.0093 0 0.0161834 11.0201 0 0.0178922 11.0321
0 0.0175495 11.0461 0 0.0156596 11.0617 0 0.0129742 11.0791 0
0.0098198 11.0982 0 0.0061909 11.1188 0 0.00233173 11.1414 0 -0.00155756
11.1659 0 -0.00532006 11.1917 0 -0.00881298 11.2157 0 -0.0119269 11.2302
0 -0.0146359 11.212 0 -0.0171246 11.0911 0 -0.0195725 10.7245 0
-0.0194169 10.0578 0 -0.0136743 9.13311 0 -0.00729831 7.61892 0 0.00478765
11.0014 0 0.0112473 11.0078 0 0.0143279 11.0174 0 0.0157138 11.0285
0 0.0150772 11.0414 0 0.0127876 11.0562 0 0.00940596 11.0729 0
0.0055116 11.0922 0 0.00136677 11.114 0 -0.00310658 11.1381 0 -0.00765475
11.165 0 -0.0120684 11.1946 0 -0.0161505 11.2258 0 -0.0197099 11.2555
0 -0.0226014 11.2752 0 -0.0247638 11.26 0 -0.0262883 11.1382 0
-0.0270811 10.7757 0 -0.0246523 10.132 0 -0.0165243 9.23174 0 -0.00846419
7.72817 0 0.00404713 11.0011 0 0.00987998 11.0066 0 0.0126379 11.0152
0 0.0136901 11.0252 0 0.0127592 11.0372 0 0.010069 11.051 0
0.00608109 11.0669 0 0.00117999 11.0855 0 -0.00403574 11.1076 0 -0.00925449
11.133 0 -0.0146159 11.1615 0 -0.0198532 11.1936 0 -0.0247183 11.2291
0 -0.0289672 11.2667 0 -0.0323769 11.303 0 -0.0347851 11.3288 0
-0.0360931 11.3178 0 -0.0363091 11.1977 0 -0.035106 10.843 0 -0.0302023
10.2228 0 -0.0195241 9.34484 0 -0.0096599 7.84894 0 0.00347913 11.001
0 0.00871345 11.0056 0 0.0110993 11.0133 0 0.0118288 11.0224 0
0.0106071 11.0333 0 0.00753063 11.0461 0 0.00295027 11.061 0 -0.0028286
11.0788 0 -0.00942694 11.1002 0 -0.0161002 11.1258 0 -0.0224535 11.1558
0 -0.0287097 11.1898 0 -0.0345634 11.228 0 -0.0397205 11.2703 0
-0.0439064 11.3151 0 -0.0468877 11.3588 0 -0.048489 11.3916 0 -0.0485887
11.386 0 -0.0471267 11.2698 0 -0.0436053 10.9261 0 -0.0360275 10.3291
0 -0.0226324 9.47132 0 -0.010855 7.98 0 0.00303879 11.0008 0
0.00775868 11.0048 0 0.00975573 11.0117 0 0.010128 11.0199 0 0.00863038
11.0298 0 0.00519119 11.0415 0 4.84413e-05 11.0553 0 -0.00657523 11.0721
0 -0.0143827 11.0926 0 -0.022891 11.1175 0 -0.0311449 11.1478 0
-0.0386531 11.1833 0 -0.0457351 11.2236 0 -0.05204 11.2689 0 -0.0572431
11.3188 0 -0.0610625 11.3717 0 -0.0632633 11.4236 0 -0.0636772 11.464
0 -0.0621797 11.4649 0 -0.0586609 11.3547 0 -0.0525141 11.0239 0
-0.0420562 10.4496 0 -0.0257999 9.60993 0 -0.012036 8.12013 0 0.00269123
11.0007 0 0.00697358 11.0043 0 0.00863875 11.0105 0 0.00864983 11.0178
0 0.00683382 11.0266 0 0.00306442 11.0372 0 -0.00259782 11.0499 0
-0.0100166 11.0655 0 -0.0189811 11.0848 0 -0.0290988 11.1088 0 -0.0397292
11.1382 0 -0.0496496 11.174 0 -0.0582546 11.2161 0 -0.0659944 11.2638
0 -0.0724877 11.3171 0 -0.0774047 11.3755 0 -0.0804701 11.4371 0
-0.0814722 11.4977 0 -0.0802687 11.5464 0 -0.0767534 11.5547 0 -0.0707925
11.4521 0 -0.0617244 11.1358 0 -0.0482304 10.583 0 -0.028989 9.75931
0 -0.0131916 8.26798 0 0.00241257 11.0006 0 0.00632541 11.0038 0
0.0077161 11.0095 0 0.00743108 11.016 0 0.00528859 11.0238 0 0.00115944
11.0333 0 -0.00496887 11.0448 0 -0.0131177 11.059 0 -0.0231689 11.077
0 -0.0348251 11.0996 0 -0.0475449 11.128 0 -0.0604801 11.1628 0
-0.0720775 11.2054 0 -0.081615 11.2551 0 -0.0897354 11.311 0 -0.096055
11.3732 0 -0.100257 11.4407 0 -0.102101 11.5116 0 -0.101423 11.5814
0 -0.0981343 11.6388 0 -0.0921789 11.6552 0 -0.0833989 11.5615 0
-0.0711297 11.2604 0 -0.0544778 10.7281 0 -0.0321638 9.918 0 -0.0143014
8.42218 0 0.00218611 11.0006 0 0.0057861 11.0035 0 0.00694801 11.0087
0 0.0064316 11.0146 0 0.00403181 11.0215 0 -0.000446596 11.0298 0
-0.00705068 11.0399 0 -0.015852 11.0528 0 -0.0269012 11.0693 0 -0.0400037
11.0903 0 -0.0547231 11.1171 0 -0.0703153 11.1508 0 -0.0856707 11.1922
0 -0.0988494 11.2425 0 -0.109034 11.3008 0 -0.117142 11.366 0
-0.122813 11.4377 0 -0.125775 11.515 0 -0.125857 11.5956 0 -0.122975
11.6748 0 -0.117114 11.7412 0 -0.108277 11.766 0 -0.0963399 11.682
0 -0.0806424 11.3964 0 -0.0607189 10.8831 0 -0.0352858 10.0845 0
-0.0153539 8.58125 0 0.00199991 11.0005 0 0.00533446 11.0032 0 0.00630483
11.008 0 0.00560814 11.0134 0 0.00301753 11.0196 0 -0.00172095 11.0268
0 -0.00875816 11.0355 0 -0.0181996 11.0468 0 -0.0301425 11.0616 0
-0.0445774 11.0809 0 -0.0611817 11.1059 0 -0.0793235 11.1379 0 -0.0979983
11.1779 0 -0.115788 11.227 0 -0.130323 11.2861 0 -0.140735 11.354
0 -0.148311 11.4292 0 -0.15275 11.5111 0 -0.153865 11.5986 0
-0.151585 11.6892 0 -0.145931 11.7779 0 -0.136996 11.8533 0 -0.124861
11.8866 0 -0.109452 11.8127 0 -0.0901492 11.5424 0 -0.0668792 11.0466
0 -0.038322 10.2571 0 -0.0163513 8.7438 0 0.00184523 11.0004 0
0.00495387 11.0029 0 0.0057631 11.0074 0 0.00492704 11.0124 0 0.00219784
11.0179 0 -0.00271967 11.0243 0 -0.0100658 11.0317 0 -0.0200648 11.0413
0 -0.0328659 11.0542 0 -0.0484996 11.0715 0 -0.0668477 11.0945 0
-0.087402 11.1243 0 -0.109274 11.1625 0 -0.131145 11.21 0 -0.151255
11.2678 0 -0.166781 11.3368 0 -0.17686 11.4153 0 -0.183252 11.5012
0 -0.185765 11.5938 0 -0.184341 11.6917 0 -0.179049 11.7922 0
-0.170051 11.8903 0 -0.157547 11.9744 0 -0.141734 12.0162 0 -0.122584
11.9524 0 -0.0995389 11.6968 0 -0.0728967 11.2168 0 -0.0412523 10.4344
0 -0.017209 8.90873 0 0.00171561 11.0004 0 0.00463129 11.0027 0
0.0053042 11.007 0 0.00436138 11.0115 0 0.00153424 11.0166 0 -0.00349941
11.0221 0 -0.0110459 11.0285 0 -0.0214325 11.0365 0 -0.0349603 11.0472
0 -0.0517336 11.0622 0 -0.0716602 11.0829 0 -0.0944581 11.1103 0
-0.11937 11.1461 0 -0.14519 11.1915 0 -0.170245 11.2477 0 -0.192419
11.3154 0 -0.208407 11.3953 0 -0.217425 11.4852 0 -0.221848 11.5823
0 -0.22165 11.6858 0 -0.216945 11.7941 0 -0.207975 11.9045 0
-0.195057 12.0116 0 -0.178527 12.104 0 -0.158691 12.1539 0 -0.135591
12.0999 0 -0.108712 11.8583 0 -0.078728 11.3923 0 -0.044008 10.615
0 -0.0185216 9.07325 0 0.00160614 11.0004 0 0.00435634 11.0026 0
0.00491312 11.0066 0 0.00388968 11.0108 0 0.000995823 11.0154 0 -0.00410588
11.0202 0 -0.0117694 11.0257 0 -0.0223984 11.0323 0 -0.0364246 11.0411
0 -0.0541477 11.0535 0 -0.0755699 11.0713 0 -0.100412 11.096 0
-0.128168 11.129 0 -0.157764 11.1718 0 -0.187628 11.2257 0 -0.215711
11.2917 0 -0.239506 11.3703 0 -0.255243 11.462 0 -0.262326 11.564
0 -0.263891 11.6727 0 -0.26013 11.7872 0 -0.251369 11.9057 0
-0.23805 12.0255 0 -0.220661 12.1411 0 -0.199684 12.2411 0 -0.175538
12.2986 0 -0.148333 12.2539 0 -0.117597 12.025 0 -0.0843022 11.5716
0 -0.0472211 10.7968 0 -0.0197496 9.26707 0 0.00151304 11.0003 0
0.00412078 11.0024 0 0.00457976 11.0063 0 0.00349462 11.0102 0 0.000557931
11.0143 0 -0.00457567 11.0186 0 -0.0122931 11.0232 0 -0.0230535 11.0286
0 -0.037386 11.0357 0 -0.0557571 11.0456 0 -0.0784168 11.0602 0
-0.105199 11.0816 0 -0.135567 11.1114 0 -0.168718 11.151 0 -0.203209
11.2019 0 -0.237071 11.2656 0 -0.267822 11.3426 0 -0.292611 11.4331
0 -0.307211 11.5375 0 -0.311353 11.6519 0 -0.309078 11.7724 0
-0.300851 11.8977 0 -0.287244 12.0261 0 -0.268921 12.1546 0 -0.246556
12.278 0 -0.220769 12.3849 0 -0.192086 12.4491 0 -0.1607 12.4129
0 -0.126101 12.1959 0 -0.0900034 11.7527 0 -0.0500494 11 0
-0.0200725 9.46626 0 0.00143329 11.0003 0 0.00391813 11.0023 0 0.00429285
11.006 0 0.00316219 11.0097 0 0.00020085 11.0135 0 -0.00493789 11.0173
0 -0.0126627 11.0211 0 -0.0234711 11.0255 0 -0.0379626 11.031 0
-0.0567299 11.0387 0 -0.0802352 11.0503 0 -0.108621 11.0677 0 -0.141478
11.0935 0 -0.17792 11.1294 0 -0.216801 11.1769 0 -0.256257 11.2373
0 -0.293859 11.3118 0 -0.326725 11.401 0 -0.351687 11.5044 0
-0.364104 11.6219 0 -0.364173 11.7491 0 -0.357004 11.8813 0 -0.343384
12.0171 0 -0.324156 12.1547 0 -0.300222 12.2912 0 -0.272435 12.4214
0 -0.241543 12.5343 0 -0.208179 12.6043 0 -0.172568 12.5758 0
-0.134428 12.3687 0 -0.0954223 11.9551 0 -0.0518933 11.2229 0 -0.0204749
9.66103 0 0.00136444 11.0003 0 0.00374321 11.0022 0 0.00404475 11.0057
0 0.0028825 11.0092 0 -9.12043e-05 11.0127 0 -0.00521569 11.0161 0
-0.012914 11.0193 0 -0.0237091 11.0227 0 -0.0382495 11.0268 0 -0.0572199
11.0327 0 -0.0812444 11.0415 0 -0.110733 11.0552 0 -0.145655 11.0762
0 -0.185256 11.1074 0 -0.228235 11.1507 0 -0.273039 11.2072 0
-0.317321 11.2784 0 -0.358203 11.3651 0 -0.392424 11.4673 0 -0.416537
11.5843 0 -0.425562 11.7155 0 -0.420334 11.8555 0 -0.407183 11.999
0 -0.38725 12.1447 0 -0.361673 12.2907 0 -0.331585 12.4342 0
-0.298006 12.5703 0 -0.2618 12.688 0 -0.223659 12.763 0 -0.184007
12.7407 0 -0.142776 12.5625 0 -0.100241 12.178 0 -0.0539125 11.4419
0 -0.0209059 9.84929 0 0.00130515 11.0003 0 0.00359146 11.0021 0
0.0038305 11.0055 0 0.00264564 11.0088 0 -0.000330701 11.0121 0 -0.00542742
11.015 0 -0.0130756 11.0177 0 -0.0238134 11.0203 0 -0.0383217 11.0232
0 -0.0573503 11.0273 0 -0.0816435 11.0337 0 -0.111817 11.044 0
-0.148172 11.0604 0 -0.190413 11.0859 0 -0.237362 11.1237 0 -0.287205
11.1757 0 -0.337926 11.2426 0 -0.386687 11.3259 0 -0.430161 11.4259
0 -0.464743 11.5421 0 -0.486799 11.6733 0 -0.491099 11.8183 0
-0.479291 11.9708 0 -0.459067 12.1251 0 -0.431946 12.2798 0 -0.399358
12.4333 0 -0.362653 12.5829 0 -0.323002 12.7236 0 -0.281337 12.8452
0 -0.23848 12.9236 0 -0.195717 12.9258 0 -0.150698 12.7763 0
-0.10485 12.3977 0 -0.0558541 11.6545 0 -0.0212649 10.0297 0 0.00345874
11.0021 0 0.00123343 11.0003 0 0.00364389 11.0053 0 0.00244396 11.0085
0 -0.000527605 11.0115 0 -0.00558759 11.0141 0 -0.0131695 11.0163 0
-0.0238196 11.0181 0 -0.0382379 11.02 0 -0.0572185 11.0226 0 -0.081592
11.0268 0 -0.112129 11.034 0 -0.14939 11.0463 0 -0.193485 11.0663
0 -0.243782 11.0973 0 -0.29856 11.143 0 -0.355407 11.2049 0
-0.411829 11.2838 0 -0.464476 11.3804 0 -0.509602 11.4947 0 -0.543334
11.6257 0 -0.561962 11.7714 0 -0.560112 11.9301 0 -0.540422 12.0946
0 -0.512068 12.2589 0 -0.476953 12.4218 0 -0.43678 12.5816 0
-0.393095 12.736 0 -0.347171 12.8803 0 -0.300021 13.0043 0 -0.25386
13.104 0 -0.207173 13.1301 0 -0.157914 12.9874 0 -0.109026 12.6119
0 -0.0575152 11.8591 0 -0.0215333 10.2017 0 0.00347847 11.0052 0
0.00330273 11.002 0 0.00114663 11.0002 0 0.00227068 11.0082 0 -0.000689879
11.011 0 -0.00570732 11.0133 0 -0.0132132 11.015 0 -0.0237554 11.0163
0 -0.038044 11.0172 0 -0.0569006 11.0184 0 -0.0812157 11.0207 0
-0.111874 11.0252 0 -0.149631 11.0338 0 -0.194922 11.0488 0 -0.247605
11.0732 0 -0.306596 11.1109 0 -0.369513 11.1657 0 -0.433298 11.2392
0 -0.494947 11.3313 0 -0.550619 11.4425 0 -0.596209 11.5721 0
-0.627682 11.7183 0 -0.641381 11.8786 0 -0.6319 12.0506 0 -0.603049
12.2265 0 -0.565578 12.3998 0 -0.521757 12.5696 0 -0.473537 12.7346
0 -0.4226 12.8926 0 -0.370307 13.039 0 -0.31956 13.183 0
-0.269186 13.3031 0 -0.217494 13.3321 0 -0.164373 13.1936 0 -0.112608
12.8187 0 -0.0588849 12.0548 0 -0.0217036 10.3649 0 0.0021165 11.0079
0 0.00329654 11.005 0 0.00310541 11.0019 0 0.00106343 11.0002 4.29333e-19
-0.000825374 11.0105 0 -0.0057952 11.0126 0 -0.0132197 11.014 0 -0.0236423
11.0146 0 -0.037775 11.0148 0 -0.0564554 11.0148 0 -0.0806128 11.0153
0 -0.111212 11.0174 0 -0.149157 11.0226 0 -0.19513 11.033 0
-0.249386 11.0514 0 -0.311425 11.0814 0 -0.379597 11.127 0 -0.450776
11.1925 0 -0.521169 11.279 0 -0.587288 11.3858 0 -0.644848 11.5126
0 -0.689481 11.6582 0 -0.717117 11.82 0 -0.724291 11.9946 0
-0.705697 12.1794 0 -0.666467 12.3656 0 -0.618991 12.5468 0 -0.565873
12.7223 0 -0.509247 12.8912 0 -0.450898 13.0513 0 -0.39462 13.2173
0 -0.33928 13.3804 0 -0.282959 13.5001 0 -0.22672 13.5296 0
-0.169964 13.3931 0 -0.115619 13.0171 0 -0.0599815 12.2411 0 -0.0217793
10.519 0 -0.000948764 11.0102 0 0.00196508 11.0076 0 0.00308105 11.0047
1.87962e-18 0.00291417 11.0017 -1.35932e-18 0.000983406 11.0002 -8.71326e-19 -0.00585958 11.012 0
-0.0131986 11.013 0 -0.0234961 11.0132 0 -0.0374581 11.0126 0 -0.0559281
11.0116 0 -0.0798591 11.0106 0 -0.11027 11.0105 0 -0.148172 11.0127
0 -0.194436 11.019 0 -0.249628 11.0319 0 -0.313723 11.0546 0
-0.385762 11.0913 0 -0.463438 11.1463 0 -0.542738 11.2241 0 -0.619118
11.3252 0 -0.688655 11.4479 0 -0.746698 11.5913 0 -0.788742 11.7534
0 -0.810827 11.9308 0 -0.80984 12.1192 0 -0.78069 12.3159 0
-0.729965 12.5113 0 -0.671727 12.699 0 -0.608841 12.8789 0 -0.543577
13.0501 0 -0.480742 13.2298 0 -0.419372 13.4144 0 -0.357044 13.5756
0 -0.295257 13.6929 0 -0.234762 13.721 0 -0.17471 13.5849 0
-0.118102 13.2066 0 -0.060831 12.4177 0 -0.0217728 10.6638 0 -0.0059225
11.0115 0 -0.00103152 11.0097 -3.80501e-18 0.00179723 11.0071 -1.9791e-18 0.00287141 11.0044
9.54203e-19 0.00272626 11.0016 -9.19222e-19 0.000906601 11.0002 0 -0.0131586 11.0122 0
-0.0233277 11.0119 0 -0.0371129 11.0107 0 -0.0553529 11.0087 0 -0.0790125
11.0064 0 -0.109146 11.0044 0 -0.146838 11.0039 0 -0.1931 11.0065
0 -0.248737 11.0144 0 -0.314104 11.0306 0 -0.388813 11.0588 0
-0.471353 11.1035 0 -0.558613 11.1695 0 -0.645609 11.2612 0 -0.727041
11.3784 0 -0.798643 11.5182 0 -0.855512 11.6789 0 -0.893154 11.8577
0 -0.907888 12.0503 0 -0.897108 12.252 0 -0.856046 12.4593 0
-0.792851 12.6625 0 -0.723241 12.8554 0 -0.650256 13.038 0 -0.579898
13.229 0 -0.51132 13.4273 0 -0.441746 13.6094 0 -0.372918 13.7669
0 -0.306022 13.8799 0 -0.241639 13.9052 0 -0.178672 13.7683 0
-0.120105 13.3868 0 -0.0614635 12.5843 0 -0.0216987 10.7995 0 -0.0131323
11.0114 0 -0.00589012 11.0108 8.00829e-18 -0.00108058 11.0091 0 0.00163623 11.0067
2.00791e-18 0.00266885 11.0042 5.85404e-22 0.00254226 11.0015 0 0.000833006 11.0002 0
-0.0231462 11.0108 0 -0.036752 11.009 0 -0.0547547 11.0062 0 -0.078117
11.0027 0 -0.107913 10.999 0 -0.145279 10.9961 0 -0.191325 10.9954
0 -0.247037 10.9988 0 -0.31307 11.009 0 -0.389494 11.0295 0
-0.475471 11.0644 0 -0.568795 11.1186 0 -0.665447 11.1973 0 -0.759394
11.3046 0 -0.844619 11.4392 0 -0.916642 11.5971 0 -0.970457 11.7757
0 -1.00175 11.9711 0 -1.0073 12.1784 0 -0.985142 12.3922 0
-0.93094 12.6088 0 -0.854469 12.8184 0 -0.773034 13.0147 0 -0.694217
13.2175 0 -0.617293 13.4273 0 -0.539066 13.6229 0 -0.461768 13.8007
0 -0.386873 13.9525 0 -0.315278 14.0601 0 -0.24743 14.0817 0
-0.181916 13.9429 0 -0.121678 13.5572 0 -0.0619096 12.7411 0 -0.0215696
10.9262 0 -0.0229992 11.0098 0 -0.0129337 11.0106 5.00893e-22 -0.00573925 11.01
0 -0.0011275 11.0085 -2.11302e-18 0.00148414 11.0063 4.19048e-22 0.00247352 11.004 0
0.00236221 11.0014 0 0.000762613 11.0001 0 -0.036385 11.0075 0 -0.0541485
11.004 0 -0.0772041 10.9994 0 -0.106628 10.9942 0 -0.143589 10.9892
0 -0.189268 10.9856 0 -0.244784 10.985 0 -0.31102 10.9898 0
-0.388415 11.0032 0 -0.476681 11.0291 0 -0.574387 11.0721 0 -0.678526
11.1375 0 -0.78407 11.2304 0 -0.883884 11.3549 0 -0.971314 11.5083
0 -1.04185 11.6851 0 -1.09055 11.8817 0 -1.11347 12.0934 0
-1.10801 12.3145 0 -1.073 12.5391 0 -1.00458 12.7635 0 -0.914207
12.9777 0 -0.826055 13.1949 0 -0.73966 13.4168 0 -0.651358 13.624
0 -0.563954 13.8149 0 -0.479426 13.9865 0 -0.398945 14.1316 0
-0.323122 14.2329 0 -0.252225 14.2498 0 -0.184511 14.1084 0 -0.122873
13.7179 0 -0.0621953 12.8881 0 -0.0213966 11.0443 0 -0.0360802 11.0062
0 -0.0225735 11.0087 -4.42882e-18 -0.0124886 11.0095 0 -0.00559303 11.0092 0
-0.00116114 11.0079 6.4277e-18 0.00134085 11.006 0 0.00228526 11.0037 0 0.00218628
11.0013 1.91545e-18 0.000695427 11.0001 0 -0.0535445 11.002 0 -0.0762918 10.9965
0 -0.105331 10.99 0 -0.14184 10.9831 0 -0.187049 10.9768 0
-0.242173 10.9726 0 -0.30827 10.9726 0 -0.386064 10.9796 0 -0.475714
10.9972 0 -0.576437 11.0298 0 -0.686106 11.0826 0 -0.800801 11.1608
0 -0.9144 11.2698 0 -1.01864 11.413 0 -1.10638 11.5862 0
-1.17327 11.7824 0 -1.21467 11.997 0 -1.22718 12.2242 0 -1.20898
12.4579 0 -1.15977 12.6919 0 -1.07625 12.9224 0 -0.978021 13.1583
0 -0.881047 13.3953 0 -0.781192 13.6148 0 -0.681992 13.8171 0
-0.585977 14.0015 0 -0.494771 14.1658 0 -0.409243 14.3035 0 -0.32967
14.3977 0 -0.256123 14.4093 0 -0.186533 14.2646 0 -0.123737 13.869
0 -0.062346 13.0255 0 -0.0211901 11.1541 0 -0.0530394 11.0003 0
-0.0353519 11.0047 0 -0.0217165 11.0074 -4.84001e-18 -0.0120601 11.0086 -4.67093e-18 -0.00542746
11.0085 -9.00985e-18 -0.00118144 11.0074 0 0.00120645 11.0056 -4.1844e-18 0.0021043 11.0035
-4.0302e-18 0.00201443 11.0013 1.93974e-18 0.0006313 11.0001 0 -0.0753911 10.994 0
-0.104044 10.9863 0 -0.140083 10.9777 0 -0.18476 10.9691 0 -0.239357
10.9617 0 -0.305066 10.9574 0 -0.382829 10.9586 0 -0.473161 10.9686
0 -0.575813 10.9917 0 -0.689406 11.0325 0 -0.811004 11.0966 0
-0.935673 11.1896 0 -1.05613 11.3163 0 -1.16301 11.4796 0 -1.24887