# vtk DataFile Version 2.0
sampleSurface
ASCII
DATASET POLYDATA
POINTS 15978 float
-4.26165e-19 0.000133477 0 -4.18079e-19 -0.000798814 0 -4.33681e-19 0.001 0 -4.09379e-19 -0.00180187
0 -0.00181681 0.000361473 0 0.00181681 0.000361473 0 -0.00181396 -0.000575145 0
0.00181396 -0.000575145 0 -0.00181945 0.00123202 0 0.00181945 0.00123202 0 -0.00181089
-0.00158285 0 0.00181089 -0.00158285 0 -4.00018e-19 -0.00288105 0 -0.00180759 -0.00266704
0 0.00180759 -0.00266704 0 -0.00351565 8.15481e-05 0 0.00351565 8.15481e-05 0
-0.00351186 -0.000939823 0 0.00351186 -0.000939823 0 -0.00351918 0.00103087 0 0.00351918
0.00103087 0 -0.00352245 0.00191322 0 0.00352245 0.00191322 0 -3.89947e-19 -0.00404214
0 -0.00350777 -0.00203871 0 0.00350777 -0.00203871 0 -0.00180405 -0.00383352 0
0.00180405 -0.00383352 0 -0.00350338 -0.00322101 0 0.00350338 -0.00322101 0 -0.005
8.60602e-05 0 0.005 8.60602e-05 0 -0.005 -0.00103629 0 0.005 -0.00103629
0 -0.005 0.00112923 0 0.005 0.00112923 0 -3.79112e-19 -0.00529135 0
-0.00180023 -0.00508853 0 0.00180023 -0.00508853 0 -0.005 0.00209882 0 0.005
0.00209882 0 -0.005 -0.00224382 0 0.005 -0.00224382 0 -0.00349866 -0.00449304
0 0.00349866 -0.00449304 0 -0.005 0.003 0 0.005 0.003 0
-0.005 -0.003543 0 0.005 -0.003543 0 -0.00637208 2.82617e-05 0 0.00639053
4.25732e-05 0 -0.00637208 0.00114892 0 -0.00637208 -0.00117745 0 0.00639053 -0.00116311
0 0.00639053 0.00116321 0 -3.67455e-19 -0.00663538 0 -0.00179612 -0.00643879 0
0.00179612 -0.00643879 0 -0.00637208 0.00219052 0 0.00639053 0.00220479 0 -0.00349357
-0.00586162 0 0.00349357 -0.00586162 0 -0.00637208 -0.00247467 0 0.00639053 -0.00246031
0 -0.005 -0.00494079 0 0.005 -0.00494079 0 -0.00637208 0.00315864 0
0.00639053 0.00317289 0 -0.00637208 -0.00387036 0 0.00639053 -0.00385597 0 -0.00637208
0.00405846 0 0.00639053 0.00407269 0 -0.00778421 -7.99569e-05 0 0.00781802 -5.3679e-05
0 -0.00778421 0.00112388 0 0.00781802 0.00115011 0 -0.00778421 -0.00137517 0
0.00781802 -0.00134884 0 -3.54912e-19 -0.00808142 0 -0.0017917 -0.00789154 0 0.0017917
-0.00789154 0 -0.00778421 0.0022428 0 -0.0034881 -0.00733407 0 0.0034881 -0.00733407
0 0.00781802 0.00226899 0 -0.005 -0.00644467 0 0.005 -0.00644467 0
-0.00778421 -0.00276868 0 0.00781802 -0.0027423 0 -0.00637208 -0.00537197 0 0.00639053
-0.00535755 0 -0.00778421 0.00328278 0 0.00781802 0.00330893 0 -0.00778421 0.00424939
0 -0.00778421 -0.00426796 0 0.00781802 -0.00424152 0 0.00781802 0.00427551 0
-0.00923755 -0.000243565 0 0.00928347 -0.000207818 0 -0.00923755 0.00104957 0 -0.00778421
0.00514782 0 0.00928347 0.00108525 0 0.00781802 0.0051739 0 -0.00923755 -0.00163485
0 0.00928347 -0.00159903 0 -0.00637208 -0.00698755 0 0.00639053 -0.0069731 0
-0.005 -0.0080627 0 0.005 -0.0080627 0 -0.00923755 0.00225148 0 0.00928347
0.0022871 0 -0.00348222 -0.00891827 0 0.00348222 -0.00891827 0 -0.00178695 -0.00945455
0 0.00178695 -0.00945455 0 -3.41418e-19 -0.00963721 0 -0.00923755 -0.00313172 0
-0.00778421 -0.00588103 0 0.00781802 -0.00585453 0 0.00928347 -0.00309583 0 -0.00923755
0.0033686 0 0.00928347 0.00340416 0 -0.00923755 0.00440692 0 0.00928347 0.00444243
0 -0.00923755 -0.00474221 0 0.00928347 -0.00470623 0 -0.00923755 0.00537198 0
-0.0107333 -0.000467921 0 0.00928347 0.00540745 0 -0.0107333 0.000921062 0 0.0107879
-0.000425364 0 0.00639053 -0.00871127 0 -0.00637208 -0.00872575 0 0.0107879 0.000963535
0 -0.00778421 -0.00761653 0 0.00781802 -0.00758997 0 -0.0107333 -0.00196233 0
0.0107879 -0.00191968 0 -0.0107333 0.00221206 0 -0.005 -0.00980352 0 0.005
-0.00980352 0 0.0107879 0.00225445 0 -0.00923755 0.00626897 0 -0.00347589 -0.0106227
0 0.00347589 -0.0106227 0 0.00928347 0.00630439 0 -0.0107333 0.00341198 0
-0.00178183 -0.0111362 0 0.00178183 -0.0111362 0 -0.00923755 -0.00647493 0 0.00928347
-0.00643887 0 -3.26899e-19 -0.0113111 0 -0.0107333 -0.00357015 0 0.0107879 0.00345431
0 0.0107879 -0.00352741 0 -0.0107333 0.00452726 0 0.0107879 0.00456952 0
-0.0107333 -0.00530001 0 0.0107879 -0.00525717 0 -0.0107333 0.00556386 0 0.0107879
0.00560606 0 -0.000743369 0.0122055 0 0.000743369 0.0122055 0 -0.00778421 -0.00948375
0 0.00781802 -0.00945713 0 -0.0122727 0.000733061 0 -0.0122727 -0.000758799 0
0.0123323 -0.000712262 0 0.0123323 0.0007795 0 0.00639053 -0.0105814 0 -0.00637208
-0.0105959 0 -0.00923755 -0.00833916 0 -0.0122727 0.00211968 0 0.00928347 -0.00830301
0 -0.0122727 -0.00236389 0 0.0123323 0.00216603 0 0.0123323 -0.00231725 0
-0.0107333 0.00652734 0 0.0107879 0.00656947 0 -0.005 -0.0116765 0 0.005
-0.0116765 0 -0.0122727 0.00340848 0 0.0123323 0.00345474 0 -0.000741126 0.0128136
0 0.000741126 0.0128136 0 -0.0107333 -0.00716117 0 0.0107879 -0.00711821 0
-0.00346908 -0.0124565 0 0.00346908 -0.0124565 0 -0.0122727 -0.00409081 0 0.0123323
-0.00404405 0 -0.0107333 0.00742284 0 -0.00177633 -0.0129455 0 0.00177633 -0.0129455
0 -0.0122727 0.00460636 0 -3.11279e-19 -0.013112 0 0.0107879 0.00746492 0
-0.002 0.013 0 0.002 0.013 0 0.0123323 0.00465255 0 -0.0007387
0.0134712 0 0.0007387 0.0134712 0 -0.0122727 0.00571974 0 0.0123323 0.00576585
0 -0.0122727 -0.00594879 0 0.0123323 -0.00590191 0 -0.002 0.0135849 0
0.002 0.0135849 0 -0.0138571 0.000479853 0 -0.00923755 -0.0103449 0 0.00928347
-0.0103086 0 0.00781802 -0.011466 0 -0.00778421 -0.0114927 0 -0.0138571 -0.00112242
0 0.0139177 0.000527252 0 0.0139177 -0.00107491 0 -0.0138571 0.0019691 0
-0.0122727 0.00675458 0 0.0139177 0.00201639 0 0.0123323 0.00680062 0 -0.0107333
-0.00916358 0 0.00639053 -0.0125934 0 0.0107879 -0.0091205 0 -0.00637208 -0.012608
0 -0.0138571 -0.0028463 0 0.0139177 -0.00279868 0 -0.000736077 0.0141824 0
0.000736077 0.0141824 0 -0.00319452 0.0138829 0 0.00320133 0.0138879 0 -0.0138571
0.00335328 0 0.0139177 0.00340049 0 -0.002 0.0142174 0 0.002 0.0142174
0 -0.0122727 0.00771641 0 0.0123323 0.00776239 0 -0.005 -0.0136916 0
0.005 -0.0136916 0 -0.0138571 0.00463982 0 -0.0122727 -0.0079478 0 -0.0138571
-0.00470103 0 0.0123323 -0.00790078 0 0.0139177 -0.00465328 0 0.0139177 0.00468694
0 -0.00319452 0.0144678 0 0.00320133 0.0144728 0 -0.00346175 -0.0144295 0
0.00346175 -0.0144295 0 -0.00073324 0.0149515 0 0.00073324 0.0149515 0 -0.0122727
0.00861039 0 -0.00177041 -0.0148921 0 0.00177041 -0.0148921 0 -0.002 0.0149014
0 0.002 0.0149014 0 -0.0138571 0.0058356 0 -2.94473e-19 -0.0150496 0
0.0123323 0.00865631 0 0.0139177 0.00588264 0 -0.0138571 -0.00669653 0 0.0139177
-0.00664864 0 -0.00319452 0.0151003 0 0.00320133 0.0151053 0 -0.0154877 0.000155282
0 -0.0138571 0.00694702 0 -0.00451419 0.0148583 0 0.0045263 0.0148673 0
0.00928347 -0.0124665 0 -0.00923755 -0.0125028 0 0.0155453 0.000200444 0 -0.0154877
-0.00156548 0 0.0139177 0.00699399 0 -0.0154877 0.00175466 0 -0.0107333 -0.011318
0 0.0107879 -0.0112748 0 0.0155453 -0.00152021 0 0.0155453 0.00179972 0
0.00781802 -0.0136273 0 -0.00778421 -0.0136541 0 -0.002 0.0156411 0 0.002
0.0156411 0 -0.000730172 0.0157833 0 0.000730172 0.0157833 0 -0.0154877 0.0032412
0 -0.0154877 -0.00341685 0 0.0155453 0.00328617 0 -0.0122727 -0.0100985 0
0.0155453 -0.00337146 0 0.0123323 -0.0100514 0 -0.0138571 0.00798004 0 0.0139177
0.00802694 0 0.00639053 -0.0147581 0 -0.00637208 -0.0147727 0 -0.00451419 0.0154432
0 0.0045263 0.0154521 0 -0.00319452 0.0157843 0 0.00320133 0.0157893 0
-0.0154877 0.00462288 0 0.0155453 0.00466776 0 -0.0154877 -0.00540874 0 -0.0138571
-0.00884348 0 0.0155453 -0.00536322 0 0.0139177 -0.00879545 0 -0.0138571 0.00894019
0 -0.002 0.0164411 0 0.002 0.0164411 0 0.0139177 0.00898702 0
-0.0154877 0.00590709 0 -0.005 -0.0158596 0 0.005 -0.0158596 0 0.0155453
0.00595189 0 -0.00451419 0.0160757 0 -0.000726854 0.0166828 0 0.000726854 0.0166828
0 0.0045263 0.0160846 0 -0.00319452 0.016524 0 0.00320133 0.016529 0
-0.00345386 -0.0165523 0 0.00345386 -0.0165523 0 -0.0138571 0.0098326 0 -0.00597213
0.0159359 0 0.00598764 0.0159474 0 -0.0154877 0.00710071 0 0.0139177 0.00987937
0 -0.00176404 -0.0169864 0 0.00176404 -0.0169864 0 0.0155453 0.00714543 0
-2.76391e-19 -0.0171343 0 -0.0171658 -0.000247278 0 0.0172162 -0.000207752 0 -0.0171658
0.00147028 0 -0.0154877 -0.0075518 0 0.0155453 -0.00750615 0 0.0172162 0.00150971
0 -0.0171658 -0.00209519 0 0.0172162 -0.00205556 0 0.0107879 -0.0135925 0
-0.0107333 -0.0136359 0 -0.00451419 0.0167597 0 0.0045263 0.0167686 0 -0.002
0.0173062 0 0.002 0.0173062 0 -0.0171658 0.00306667 0 -0.0122727 -0.0124125
0 0.00928347 -0.0147881 0 0.0123323 -0.0123652 0 -0.00923755 -0.0148246 0
0.0172162 0.00310601 0 -0.0154877 0.00821012 0 -0.00597213 0.0165208 0 0.00598764
0.0165323 0 0.0155453 0.00825477 0 -0.00319452 0.017324 0 0.00320133 0.017329
0 -0.0171658 -0.00408336 0 -0.000723266 0.0176555 0 0.000723266 0.0176555 0
0.0172162 -0.00404362 0 -0.0171658 0.00455044 0 0.00781802 -0.0159527 0 -0.00778421
-0.0159796 0 -0.0138571 -0.0111534 0 0.0139177 -0.0111052 0 0.0172162 0.0045897
0 -0.0154877 0.00924127 0 -0.00451419 0.0174994 0 0.0045263 0.0175084 0
0.0155453 0.00928585 0 -0.0171658 0.00592954 0 -0.00597213 0.0171533 0 0.00598764
0.0171648 0 0.0172162 0.00596872 0 0.00639053 -0.0170872 0 -0.00637208 -0.0171018
0 -0.0171658 -0.00622243 0 0.0172162 -0.00618257 0 -0.002 0.0182418 0
0.002 0.0182418 0 -0.0154877 -0.00985753 0 0.0155453 -0.00981172 0 -0.00319452
0.0181891 0 0.00320133 0.0181941 0 -0.0154877 0.0101997 0 0.0155453 0.0102442
0 -0.0171658 0.00721136 0 0.0172162 0.00725047 0 -0.000719385 0.0187075 0
0.000719385 0.0187075 0 -0.00758282 0.0171264 0 0.00759938 0.0171387 0 -0.00597213
0.0178373 0 0.00598764 0.0178488 0 -0.00451419 0.0182994 0 0.0045263 0.0183083
0 -0.005 -0.0181922 0 0.005 -0.0181922 0 -0.018893 -0.00073496 0
-0.018893 0.0011094 0 0.0189314 -0.000704684 0 0.0189314 0.0011396 0 -0.0154877
0.0110905 0 -0.018893 -0.0027193 0 -0.018893 0.00282365 0 -0.0171658 0.00840275
0 0.0189314 -0.00268894 0 0.0155453 0.0111349 0 0.0189314 0.00285377 0
-0.00344538 -0.0188361 0 0.00344538 -0.0188361 0 -0.0171658 -0.00852385 0 0.0172162
0.00844179 0 0.0172162 -0.00848386 0 -0.00758282 0.0177113 0 0.00759938 0.0177235
0 -0.0122727 -0.0149021 0 0.0123323 -0.0148546 0 -0.00175719 -0.0192397 0
[...]
CELL_DATA 15677
FIELD attributes 1
U 3 15677 float
-0.304871 10.2652 0 0.190476 10.9192 0 -0.101143 9.44667 0 0.0315569 10.9901
0 0.118845 10.7323 0 -0.0119271 8.75836 0 0.0455281 11.0075 0
0.0144845 10.9815 0 0.0577133 10.4719 0 0.0115306 8.22933 0 0.0466954
11.0122 0 0.0433911 11.0311 0 0.0260934 10.9286 0 0.0319079 10.1908
0 0.0113234 7.85612 0 0.0440126 11.0135 0 0.0424069 11.0439 0
0.0428087 11.0209 0 0.0332384 10.8603 0 0.0213715 9.90292 0 0.00644167
7.61194 0 0.0413778 11.0136 0 0.0404484 11.0462 0 0.0402106 11.0448
0 0.0398957 11.0049 0 0.0328247 10.7692 0 0.0159529 9.6376 0
0.0025054 7.45876 0 0.0386373 11.0131 0 0.0389917 11.0453 0 0.0393866
11.0533 0 0.0385059 11.0445 0 0.0358531 10.9826 0 0.0288602 10.6571
0 0.0121635 9.41246 0 0.000563213 7.36225 0 0.0356122 11.0123 0
0.0373765 11.0435 0 0.0387185 11.056 0 0.0384545 11.0587 0 0.0360564
11.0421 0 0.0318454 10.9528 0 0.0240818 10.5327 0 0.00902278 9.23748
0 1.66748e-05 7.30012 0 0.0323308 11.0113 0 0.035467 11.0411 0
0.0376301 11.0557 0 0.0378949 11.064 0 0.0361262 11.0634 0 0.0329228
11.0364 0 0.0284249 10.9174 0 0.0194915 10.3981 0 0.00646123 9.10673
0 -0.000237178 7.25755 0 0.0288553 11.0101 0 0.0333366 11.0382 0
0.0362334 11.054 0 0.0369503 11.0652 0 0.0355684 11.0717 0 0.0329715
11.0663 0 0.0298274 11.0289 0 0.0254197 10.8759 0 0.0154657 10.2694
0 0.00440703 9.01187 0 -0.000467842 7.23307 0 0.0252633 11.0089 0
0.0310081 11.0348 0 0.0345775 11.0514 0 0.0357333 11.0644 0 0.0346605
11.0746 0 0.0324201 11.0784 0 0.0297851 11.0687 0 0.0268398 11.0213
0 0.0222137 10.8306 0 0.0118445 10.1594 0 0.00266639 8.94596 0
-0.000671712 7.22153 0 0.0215498 11.0077 0 0.028487 11.0312 0 0.0326545
11.0481 0 0.0342514 11.0622 0 0.0334639 11.0747 0 0.0314764 11.0833
0 0.0291262 11.0853 0 0.0266389 11.0724 0 0.0235527 11.0144 0
0.0185185 10.7846 0 0.00844972 10.0706 0 0.0011006 8.90392 0 -0.00108753
7.22354 0 0.0178441 11.0065 0 0.0258793 11.0273 0 0.0304504 11.0442
0 0.0324886 11.0592 0 0.0319824 11.0731 0 0.0301948 11.0844 0
0.0279953 11.0924 0 0.0257191 11.0938 0 0.0231536 11.0784 0 0.0198663
11.009 0 0.0143979 10.7411 0 0.005141 10.0054 0 -0.000542566 8.88295
0 -0.00170821 7.23884 0 0.0146477 11.0053 0 0.0231949 11.0233 0
0.0279925 11.0398 0 0.0304272 11.0553 0 0.0302073 11.0703 0 0.0285914
11.0835 0 0.0264634 11.0948 0 0.024229 11.1033 0 0.0218271 11.105
0 0.0191313 11.0874 0 0.0156757 11.0062 0 0.00992201 10.7052 0
0.00166695 9.96285 0 -0.00221344 8.88106 0 -0.00237531 7.2678 0 0.0120677
11.0043 0 0.0206513 11.0196 0 0.025316 11.0351 0 0.0280538 11.0508
0 0.0281224 11.0666 0 0.0266613 11.0811 0 0.0245556 11.0945 0
0.0222607 11.107 0 0.0198198 11.117 0 0.0172284 11.1196 0 0.014387
11.1004 0 0.0107774 11.0078 0 0.00503414 10.6801 0 -0.00191442 9.94215
0 -0.00410335 8.8975 0 -0.00320184 7.31055 0 0.00991355 11.0034 0
0.0183868 11.0164 0 0.0227169 11.0306 0 0.0253736 11.0457 0 0.0257078
11.062 0 0.0243877 11.0776 0 0.0222697 11.0926 0 0.019843 11.1075
0 0.0172392 11.122 0 0.0145276 11.1342 0 0.0117337 11.1386 0
0.00873588 11.1183 0 0.00507869 11.0154 0 -0.000329022 10.6683 0 -0.00577959
9.94219 0 -0.00619255 8.93124 0 -0.0041189 7.36728 0 0.0082449 11.0027
0 0.0163657 11.0136 0 0.020368 11.0266 0 0.0226968 11.0406 0
0.0229529 11.0566 0 0.0217494 11.0731 0 0.0195897 11.0893 0 0.0169736
11.1059 0 0.0141124 11.1232 0 0.0111343 11.1406 0 0.00813805 11.1559
0 0.00514132 11.1628 0 0.00206543 11.1422 0 -0.00145567 11.0309 0
-0.0061963 10.6712 0 -0.00996894 9.96205 0 -0.00849286 8.98222 0 -0.00511672
7.4378 0 0.00686085 11.0021 0 0.0144629 11.0112 0 0.0182068 11.0231
0 0.0202245 11.0362 0 0.020161 11.0511 0 0.0187317 11.0675 0
0.0164959 11.0848 0 0.0136379 11.1027 0 0.0104346 11.1219 0 0.00707214
11.1424 0 0.00370063 11.1635 0 0.000421587 11.1827 0 -0.00270556 11.193
0 -0.00570621 11.173 0 -0.00884688 11.0556 0 -0.0126055 10.6898 0
-0.0145155 10.0008 0 -0.0109889 9.04966 0 -0.00618255 7.52188 0 0.00572437
11.0017 0 0.0127764 11.0093 0 0.0161904 11.0201 0 0.0178979 11.0321
0 0.0175534 11.0461 0 0.0156617 11.0617 0 0.012975 11.0791 0
0.0098197 11.0981 0 0.00619044 11.1188 0 0.00233127 11.1413 0 -0.00155781
11.1659 0 -0.00531997 11.1916 0 -0.00881257 11.2157 0 -0.0119262 11.2302
0 -0.014635 11.212 0 -0.0171236 11.0911 0 -0.0195714 10.7245 0
-0.019416 10.0577 0 -0.0136736 9.13309 0 -0.00729799 7.61888 0 0.00479137
11.0014 0 0.0112553 11.0078 0 0.0143354 11.0174 0 0.0157201 11.0285
0 0.0150816 11.0414 0 0.0127901 11.0562 0 0.00940691 11.0729 0
0.00551157 11.0922 0 0.00136632 11.114 0 -0.00310704 11.1381 0 -0.00765496
11.165 0 -0.0120682 11.1945 0 -0.0161499 11.2258 0 -0.019709 11.2555
0 -0.0226002 11.2752 0 -0.0247625 11.26 0 -0.0262869 11.1382 0
-0.0270798 10.7757 0 -0.0246512 10.132 0 -0.0165235 9.23171 0 -0.00846386
7.72813 0 0.00405103 11.0011 0 0.00988841 11.0066 0 0.0126459 11.0152
0 0.013697 11.0252 0 0.0127642 11.0372 0 0.0100719 11.051 0
0.00608226 11.0669 0 0.00118006 11.0855 0 -0.00403618 11.1075 0 -0.00925495
11.1329 0 -0.0146161 11.1615 0 -0.0198529 11.1936 0 -0.0247175 11.2291
0 -0.0289661 11.2667 0 -0.0323754 11.303 0 -0.0347834 11.3288 0
-0.0360914 11.3178 0 -0.0363074 11.1976 0 -0.0351045 10.843 0 -0.030201
10.2228 0 -0.0195233 9.34481 0 -0.00965953 7.84889 0 0.00348319 11.001
0 0.00872233 11.0056 0 0.0111078 11.0133 0 0.0118362 11.0224 0
0.0106125 11.0333 0 0.00753386 11.046 0 0.00295168 11.061 0 -0.00282842
11.0788 0 -0.00942734 11.1001 0 -0.0161007 11.1258 0 -0.0224536 11.1558
0 -0.0287093 11.1898 0 -0.0345624 11.228 0 -0.0397191 11.2703 0
-0.0439046 11.3151 0 -0.0468856 11.3588 0 -0.0484868 11.3915 0 -0.0485866
11.386 0 -0.0471247 11.2698 0 -0.0436035 10.926 0 -0.036026 10.3291
0 -0.0226315 9.47129 0 -0.0108546 7.97995 0 0.00304299 11.0008 0
0.00776792 11.0048 0 0.00976466 11.0117 0 0.0101359 11.0199 0 0.00863623
11.0298 0 0.00519479 11.0415 0 5.00984e-05 11.0553 0 -0.00657491 11.0721
0 -0.014383 11.0926 0 -0.0228914 11.1175 0 -0.0311449 11.1477 0
-0.0386525 11.1833 0 -0.045734 11.2236 0 -0.0520382 11.2689 0 -0.0572408
11.3188 0 -0.0610599 11.3717 0 -0.0632605 11.4235 0 -0.0636745 11.464
0 -0.0621771 11.4649 0 -0.0586586 11.3547 0 -0.052512 11.0239 0
-0.0420546 10.4496 0 -0.0257988 9.60989 0 -0.0120355 8.12007 0 0.00269555
11.0007 0 0.00698315 11.0043 0 0.00864806 11.0105 0 0.00865814 11.0177
0 0.00684009 11.0266 0 0.00306836 11.0372 0 -0.00259592 11.0499 0
-0.0100161 11.0655 0 -0.0189814 11.0848 0 -0.0290992 11.1087 0 -0.0397292
11.1381 0 -0.0496489 11.174 0 -0.0582531 11.2161 0 -0.0659922 11.2638
0 -0.072485 11.3171 0 -0.0774015 11.3754 0 -0.0804667 11.4371 0
-0.0814687 11.4976 0 -0.0802654 11.5463 0 -0.0767503 11.5547 0 -0.0707897
11.4521 0 -0.0617221 11.1358 0 -0.0482287 10.583 0 -0.0289878 9.75926
0 -0.0131911 8.26792 0 0.002417 11.0006 0 0.00633527 11.0038 0
0.00772575 11.0095 0 0.00743977 11.016 0 0.00529524 11.0238 0 0.0011637
11.0333 0 -0.00496673 11.0448 0 -0.0131171 11.059 0 -0.0231691 11.077
0 -0.0348254 11.0996 0 -0.0475448 11.1279 0 -0.0604792 11.1628 0
-0.0720757 11.2053 0 -0.0816123 11.255 0 -0.0897321 11.311 0 -0.0960511
11.3731 0 -0.100253 11.4407 0 -0.102097 11.5116 0 -0.101418 11.5814
0 -0.0981304 11.6388 0 -0.0921753 11.6551 0 -0.0833958 11.5614 0
-0.0711271 11.2604 0 -0.0544759 10.728 0 -0.0321626 9.91795 0 -0.0143009
8.42211 0 0.00219063 11.0006 0 0.00579621 11.0035 0 0.00695794 11.0086
0 0.00644062 11.0146 0 0.00403879 11.0215 0 -0.000442052 11.0297 0
-0.00704834 11.0399 0 -0.0158513 11.0528 0 -0.0269013 11.0692 0 -0.0400039
11.0903 0 -0.0547229 11.1171 0 -0.0703143 11.1508 0 -0.0856686 11.1922
0 -0.0988463 11.2425 0 -0.10903 11.3008 0 -0.117137 11.366 0
-0.122808 11.4377 0 -0.12577 11.515 0 -0.125852 11.5956 0 -0.12297
11.6748 0 -0.11711 11.7412 0 -0.108273 11.766 0 -0.0963364 11.682
0 -0.0806396 11.3964 0 -0.0607168 10.8831 0 -0.0352844 10.0844 0
-0.0153534 8.58117 0 0.00200451 11.0005 0 0.00534479 11.0032 0 0.00631501
11.008 0 0.00561745 11.0134 0 0.00302478 11.0196 0 -0.00171617 11.0268
0 -0.00875564 11.0355 0 -0.0181988 11.0468 0 -0.0301426 11.0616 0
-0.0445776 11.0809 0 -0.0611814 11.1059 0 -0.0793223 11.1379 0 -0.0979959
11.1779 0 -0.115784 11.2269 0 -0.130319 11.286 0 -0.14073 11.354
0 -0.148305 11.4292 0 -0.152744 11.5111 0 -0.153859 11.5986 0
-0.151579 11.6892 0 -0.145926 11.7779 0 -0.136991 11.8532 0 -0.124857
11.8866 0 -0.109449 11.8127 0 -0.0901462 11.5423 0 -0.066877 11.0465
0 -0.0383206 10.2571 0 -0.0163507 8.74372 0 0.00184991 11.0004 0
0.00496439 11.0029 0 0.0057735 11.0074 0 0.00493658 11.0124 0 0.00220532
11.0179 0 -0.00271469 11.0242 0 -0.0100632 11.0317 0 -0.0200638 11.0413
0 -0.0328659 11.0542 0 -0.0484998 11.0715 0 -0.0668474 11.0944 0
-0.0874006 11.1243 0 -0.109271 11.1625 0 -0.131141 11.21 0 -0.151249
11.2678 0 -0.166775 11.3368 0 -0.176853 11.4153 0 -0.183245 11.5012
0 -0.185758 11.5938 0 -0.184334 11.6916 0 -0.179042 11.7922 0
-0.170044 11.8903 0 -0.157542 11.9744 0 -0.141729 12.0162 0 -0.12258
11.9524 0 -0.0995356 11.6968 0 -0.0728943 11.2168 0 -0.0412508 10.4344
0 -0.0172084 8.90864 0 0.00172035 11.0004 0 0.00464197 11.0027 0
0.00531478 11.007 0 0.00437113 11.0115 0 0.00154191 11.0165 0 -0.00349426
11.0221 0 -0.0110431 11.0285 0 -0.0214315 11.0365 0 -0.0349603 11.0472
0 -0.0517337 11.0622 0 -0.0716598 11.0829 0 -0.0944566 11.1103 0
-0.119367 11.1461 0 -0.145186 11.1915 0 -0.170239 11.2477 0 -0.192412
11.3154 0 -0.208399 11.3953 0 -0.217416 11.4852 0 -0.221839 11.5823
0 -0.221641 11.6858 0 -0.216937 11.7941 0 -0.207968 11.9044 0
-0.19505 12.0116 0 -0.178521 12.1039 0 -0.158686 12.1538 0 -0.135586
12.0999 0 -0.108709 11.8582 0 -0.0787255 11.3923 0 -0.0440064 10.615
0 -0.018521 9.07315 0 0.00161093 11.0004 0 0.00436715 11.0026 0
0.00492384 11.0066 0 0.0038996 11.0108 0 0.00100367 11.0154 0 -0.0041006
11.0202 0 -0.0117665 11.0257 0 -0.0223973 11.0323 0 -0.0364246 11.0411
0 -0.0541478 11.0535 0 -0.0755695 11.0713 0 -0.100411 11.096 0
-0.128165 11.129 0 -0.157759 11.1717 0 -0.187621 11.2257 0 -0.215703
11.2917 0 -0.239497 11.3703 0 -0.255233 11.462 0 -0.262315 11.5639
0 -0.26388 11.6727 0 -0.26012 11.7872 0 -0.25136 11.9057 0
-0.238041 12.0254 0 -0.220653 12.141 0 -0.199677 12.2411 0 -0.175532
12.2985 0 -0.148328 12.2538 0 -0.117593 12.025 0 -0.0842996 11.5715
0 -0.0472194 10.7968 0 -0.019749 9.26697 0 0.00151788 11.0003 0
0.00413171 11.0024 0 0.00459062 11.0063 0 0.00350468 11.0102 0 0.000565924
11.0143 0 -0.00457026 11.0186 0 -0.0122902 11.0232 0 -0.0230524 11.0286
0 -0.0373859 11.0357 0 -0.0557573 11.0456 0 -0.0784164 11.0602 0
-0.105198 11.0815 0 -0.135564 11.1114 0 -0.168712 11.151 0 -0.203202
11.2019 0 -0.237062 11.2655 0 -0.267811 11.3426 0 -0.292599 11.4331
0 -0.307199 11.5375 0 -0.31134 11.6519 0 -0.309066 11.7724 0
-0.30084 11.8977 0 -0.287233 12.0261 0 -0.268911 12.1546 0 -0.246547
12.2779 0 -0.220761 12.3848 0 -0.192079 12.449 0 -0.160695 12.4128
0 -0.126097 12.1958 0 -0.0900006 11.7526 0 -0.0500478 10.9999 0
-0.020072 9.46616 0 0.00143817 11.0003 0 0.00392918 11.0023 0 0.00430382
11.006 0 0.00317238 11.0097 0 0.000208969 11.0135 0 -0.00493237 11.0173
0 -0.0126597 11.0211 0 -0.02347 11.0255 0 -0.0379626 11.031 0
-0.0567301 11.0387 0 -0.0802348 11.0503 0 -0.10862 11.0677 0 -0.141475
11.0935 0 -0.177914 11.1294 0 -0.216793 11.1768 0 -0.256247 11.2373
0 -0.293847 11.3118 0 -0.326712 11.4009 0 -0.351673 11.5043 0
-0.364089 11.6219 0 -0.364159 11.7491 0 -0.356991 11.8812 0 -0.343371
12.017 0 -0.324144 12.1546 0 -0.300211 12.2911 0 -0.272426 12.4213
0 -0.241534 12.5342 0 -0.208173 12.6042 0 -0.172563 12.5757 0
-0.134424 12.3687 0 -0.0954194 11.955 0 -0.0518916 11.2228 0 -0.0204744
9.66092 0 0.00136936 11.0003 0 0.00375434 11.0022 0 0.00405582 11.0057
0 0.00289282 11.0092 0 -8.29764e-05 11.0127 0 -0.00521009 11.0161 0
-0.012911 11.0193 0 -0.023708 11.0227 0 -0.0382495 11.0268 0 -0.0572201
11.0327 0 -0.081244 11.0415 0 -0.110731 11.0551 0 -0.145651 11.0761
0 -0.18525 11.1074 0 -0.228227 11.1507 0 -0.273028 11.2072 0
-0.317309 11.2784 0 -0.358189 11.3651 0 -0.392408 11.4673 0 -0.416521
11.5843 0 -0.425545 11.7155 0 -0.420318 11.8554 0 -0.407168 11.9989
0 -0.387236 12.1446 0 -0.36166 12.2906 0 -0.331574 12.4342 0
-0.297996 12.5702 0 -0.261791 12.688 0 -0.223652 12.7629 0 -0.184001
12.7406 0 -0.142772 12.5625 0 -0.100238 12.1779 0 -0.0539108 11.4418
0 -0.0209054 9.84918 0 0.0013101 11.0003 0 0.00360267 11.0021 0
0.00384166 11.0055 0 0.00265604 11.0088 0 -0.000322378 11.0121 0 -0.00542175
11.015 0 -0.0130724 11.0177 0 -0.0238122 11.0202 0 -0.0383217 11.0232
0 -0.0573505 11.0273 0 -0.0816432 11.0337 0 -0.111816 11.044 0
-0.148168 11.0604 0 -0.190407 11.0859 0 -0.237353 11.1237 0 -0.287194
11.1756 0 -0.337912 11.2426 0 -0.386671 11.3259 0 -0.430144 11.4258
0 -0.464725 11.5421 0 -0.48678 11.6733 0 -0.49108 11.8183 0
-0.479273 11.9707 0 -0.45905 12.125 0 -0.431931 12.2798 0 -0.399344
12.4333 0 -0.36264 12.5828 0 -0.322991 12.7235 0 -0.281328 12.8452
0 -0.238473 12.9235 0 -0.195711 12.9257 0 -0.150693 12.7762 0
-0.104848 12.3976 0 -0.0558525 11.6544 0 -0.0212645 10.0296 0 0.00347002
11.0021 0 0.00123841 11.0003 0 0.00365514 11.0053 0 0.00245444 11.0085
0 -0.0005192 11.0115 0 -0.00558185 11.0141 0 -0.0131663 11.0163 0
-0.0238184 11.0181 0 -0.0382379 11.02 0 -0.0572188 11.0226 0 -0.0815917
11.0268 0 -0.112128 11.034 0 -0.149386 11.0463 0 -0.193478 11.0663
0 -0.243773 11.0973 0 -0.298548 11.1429 0 -0.355392 11.2049 0
-0.411812 11.2838 0 -0.464457 11.3804 0 -0.509582 11.4947 0 -0.543313
11.6257 0 -0.561941 11.7713 0 -0.560091 11.9301 0 -0.540403 12.0946
0 -0.51205 12.2589 0 -0.476936 12.4217 0 -0.436765 12.5816 0
-0.393082 12.7359 0 -0.34716 12.8802 0 -0.300012 13.0043 0 -0.253852
13.1039 0 -0.207167 13.13 0 -0.15791 12.9873 0 -0.109023 12.6118
0 -0.0575137 11.8589 0 -0.0215329 10.2016 0 0.00348978 11.0052 0
0.00331409 11.002 0 0.00115162 11.0002 0 0.00228123 11.0082 0 -0.000681404
11.011 0 -0.00570153 11.0133 0 -0.01321 11.015 0 -0.0237542 11.0163
0 -0.038044 11.0172 0 -0.0569009 11.0184 0 -0.0812154 11.0207 0
-0.111872 11.0252 0 -0.149627 11.0338 0 -0.194915 11.0487 0 -0.247596
11.0732 0 -0.306583 11.1109 0 -0.369498 11.1657 0 -0.43328 11.2392
0 -0.494927 11.3313 0 -0.550597 11.4424 0 -0.596186 11.572 0
-0.627658 11.7183 0 -0.641357 11.8785 0 -0.631877 12.0506 0 -0.603027
12.2264 0 -0.565558 12.3997 0 -0.521739 12.5695 0 -0.473521 12.7345
0 -0.422586 12.8925 0 -0.370296 13.0389 0 -0.31955 13.1829 0
-0.269178 13.303 0 -0.217488 13.332 0 -0.164369 13.1935 0 -0.112606
12.8186 0 -0.0588835 12.0547 0 -0.0217033 10.3648 0 0.00212711 11.0079
0 0.00330793 11.005 0 0.00311686 11.0019 0 0.00106845 11.0002 4.29327e-19
-0.000816836 11.0105 0 -0.00578936 11.0126 0 -0.0132165 11.014 0 -0.0236411
11.0146 0 -0.0377751 11.0148 0 -0.0564558 11.0148 0 -0.0806125 11.0153
0 -0.11121 11.0174 0 -0.149153 11.0226 0 -0.195123 11.033 0
-0.249377 11.0514 0 -0.311412 11.0814 0 -0.379581 11.127 0 -0.450757
11.1925 0 -0.521147 11.279 0 -0.587264 11.3858 0 -0.644822 11.5126
0 -0.689455 11.6582 0 -0.71709 11.82 0 -0.724264 11.9946 0
-0.705672 12.1793 0 -0.666443 12.3656 0 -0.61897 12.5467 0 -0.565853
12.7222 0 -0.50923 12.8911 0 -0.450883 13.0512 0 -0.394608 13.2172
0 -0.33927 13.3803 0 -0.282951 13.5 0 -0.226714 13.5295 0
-0.16996 13.393 0 -0.115617 13.017 0 -0.0599803 12.241 0 -0.021779
10.5189 0 -0.000940172 11.0101 0 0.00197576 11.0076 0 0.00309256 11.0047
1.87959e-18 0.0029257 11.0017 -1.3593e-18 0.00098844 11.0002 -8.71312e-19 -0.0058537 11.012 0
-0.0131953 11.013 0 -0.0234949 11.0132 0 -0.0374582 11.0126 0 -0.0559285
11.0115 0 -0.0798589 11.0106 0 -0.110269 11.0105 0 -0.148168 11.0127
0 -0.19443 11.019 0 -0.249618 11.0319 0 -0.31371 11.0546 0
-0.385745 11.0913 0 -0.463418 11.1463 0 -0.542716 11.2241 0 -0.619093
11.3252 0 -0.688627 11.4479 0 -0.746669 11.5913 0 -0.788712 11.7534
0 -0.810797 11.9307 0 -0.809811 12.1192 0 -0.780662 12.3158 0
-0.729939 12.5112 0 -0.671705 12.6989 0 -0.608821 12.8788 0 -0.543559
13.05 0 -0.480727 13.2297 0 -0.41936 13.4143 0 -0.357034 13.5755
0 -0.295249 13.6928 0 -0.234756 13.7209 0 -0.174707 13.5848 0
-0.1181 13.2065 0 -0.06083 12.4176 0 -0.0217727 10.6637 0 -0.00591658
11.0115 0 -0.00102287 11.0097 -3.80496e-18 0.00180804 11.0071 -1.97907e-18 0.00288303 11.0044
9.54188e-19 0.00273788 11.0016 -9.19207e-19 0.000911646 11.0002 0 -0.0131553 11.0122 0
-0.0233265 11.0119 0 -0.037113 11.0107 0 -0.0553534 11.0087 0 -0.0790123
11.0064 0 -0.109144 11.0044 0 -0.146834 11.0039 0 -0.193094 11.0065
0 -0.248727 11.0144 0 -0.314091 11.0306 0 -0.388796 11.0588 0
-0.471332 11.1035 0 -0.558589 11.1695 0 -0.645582 11.2612 0 -0.727012
11.3783 0 -0.798612 11.5181 0 -0.85548 11.6789 0 -0.893121 11.8577
0 -0.907856 12.0503 0 -0.897076 12.2519 0 -0.856016 12.4592 0
-0.792824 12.6624 0 -0.723216 12.8553 0 -0.650234 13.038 0 -0.579879
13.2289 0 -0.511304 13.4272 0 -0.441733 13.6093 0 -0.372909 13.7668
0 -0.306015 13.8798 0 -0.241634 13.9051 0 -0.178669 13.7682 0
-0.120103 13.3866 0 -0.0614628 12.5842 0 -0.0216988 10.7994 0 -0.013129
11.0114 0 -0.00588417 11.0108 8.00819e-18 -0.00107179 11.0091 0 0.00164716 11.0067
2.00788e-18 0.00268058 11.0042 5.84572e-22 0.00255396 11.0015 0 0.000838057 11.0002 0
-0.0231451 11.0108 0 -0.0367521 11.009 0 -0.0547552 11.0062 0 -0.0781169
11.0027 0 -0.107912 10.999 0 -0.145275 10.9961 0 -0.191319 10.9954
0 -0.247027 10.9988 0 -0.313056 11.009 0 -0.389477 11.0295 0
-0.47545 11.0644 0 -0.56877 11.1186 0 -0.665419 11.1973 0 -0.759363
11.3045 0 -0.844586 11.4391 0 -0.916607 11.597 0 -0.970422 11.7757
0 -1.00172 11.9711 0 -1.00726 12.1783 0 -0.985108 12.3921 0
-0.930908 12.6087 0 -0.85444 12.8183 0 -0.773008 13.0147 0 -0.694195
13.2175 0 -0.617274 13.4272 0 -0.53905 13.6228 0 -0.461756 13.8006
0 -0.386864 13.9524 0 -0.315271 14.06 0 -0.247425 14.0815 0
-0.181913 13.9428 0 -0.121677 13.5571 0 -0.0619092 12.741 0 -0.0215697
10.9261 0 -0.022998 11.0098 0 -0.0129305 11.0106 5.05557e-22 -0.00573316 11.01
0 -0.00111857 11.0085 -2.11299e-18 0.00149519 11.0063 4.17938e-22 0.00248536 11.004 0
0.00237399 11.0014 0 0.000767664 11.0001 0 -0.0363852 11.0075 0 -0.0541491
11.004 0 -0.077204 10.9994 0 -0.106627 10.9942 0 -0.143585 10.9892
0 -0.189262 10.9855 0 -0.244774 10.9849 0 -0.311006 10.9898 0
-0.388398 11.0032 0 -0.47666 11.0291 0 -0.574362 11.0721 0 -0.678497
11.1375 0 -0.784037 11.2304 0 -0.883849 11.3549 0 -0.971277 11.5082
0 -1.04181 11.685 0 -1.09051 11.8817 0 -1.11343 12.0933 0
-1.10798 12.3144 0 -1.07296 12.539 0 -1.00455 12.7635 0 -0.914177
12.9776 0 -0.826029 13.1948 0 -0.739637 13.4168 0 -0.651339 13.6239
0 -0.563939 13.8148 0 -0.479414 13.9864 0 -0.398936 14.1315 0
-0.323115 14.2328 0 -0.252221 14.2497 0 -0.184509 14.1083 0 -0.122872
13.7178 0 -0.0621952 12.8879 0 -0.0213968 11.0442 0 -0.0360804 11.0062
0 -0.0225724 11.0087 -4.42877e-18 -0.0124852 11.0095 0 -0.00558681 11.0092 0
-0.00115209 11.0079 6.42761e-18 0.00135203 11.0059 0 0.00229722 11.0037 0 0.00219814
11.0013 1.91541e-18 0.000700473 11.0001 0 -0.0535451 11.002 0 -0.0762918 10.9965
0 -0.10533 10.99 0 -0.141836 10.9831 0 -0.187043 10.9768 0
-0.242163 10.9726 0 -0.308256 10.9726 0 -0.386046 10.9796 0 -0.475692
10.9972 0 -0.576411 11.0298 0 -0.686076 11.0825 0 -0.800768 11.1608
0 -0.914363 11.2698 0 -1.0186 11.413 0 -1.10634 11.5862 0
-1.17323 11.7824 0 -1.21463 11.9969 0 -1.22714 12.2242 0 -1.20894
12.4578 0 -1.15973 12.6919 0 -1.07621 12.9223 0 -0.977989 13.1582
0 -0.881019 13.3952 0 -0.781169 13.6147 0 -0.681973 13.817 0
-0.585962 14.0014 0 -0.49476 14.1657 0 -0.409235 14.3033 0 -0.329665
14.3976 0 -0.25612 14.4092 0 -0.186532 14.2645 0 -0.123737 13.8688
0 -0.0623464 13.0254 0 -0.0211905 11.1539 0 -0.05304 11.0003 0
-0.0353522 11.0047 0 -0.0217154 11.0074 -4.83996e-18 -0.0120566 11.0086 -4.67088e-18 -0.00542112
11.0085 -9.00974e-18 -0.00117225 11.0074 0 0.00121775 11.0056 -4.18433e-18 0.00211638 11.0035
-4.03013e-18 0.00202635 11.0013 1.93971e-18 0.00063634 11.0001 0 -0.0753912 10.994 0
-0.104043 10.9863 0 -0.140079 10.9777 0 -0.184753 10.9691 0 -0.239347
10.9617 0 -0.305051 10.9574 0 -0.382811 10.9586 0 -0.473139 10.9686
0 -0.575786 10.9916 0 -0.689375 11.0325 0 -0.810969 11.0966 0
-0.935635 11.1895 0 -1.05609 11.3163 0 -1.16297 11.4796 0 -1.24882